ITEM: TIMESTEP
0
ITEM: NUMBER OF ATOMS
2001
ITEM: BOX BOUNDS pp pp pp
0.0000000000000000e+00 2.8712000000000000e+01
0.0000000000000000e+00 2.8712000000000000e+01
0.0000000000000000e+00 2.8712000000000000e+01
ITEM: ATOMS x y z 
1.56518 1.42073 1.26353 
2.65692 2.82568 2.91533 
0.00945156 2.72963 2.8785 
1.25147 4.04821 1.47837 
5.65607 0.0257513 2.79394 
4.3175 1.43865 1.4012 
5.70526 2.78781 2.89887 
7.23477 1.51014 1.34203 
8.43207 2.78009 0.0345395 
8.53202 0.106576 2.73121 
11.4347 0.0517288 2.70509 
8.59536 2.79172 2.93349 
9.99226 1.35722 1.36957 
11.4094 2.81141 2.83775 
14.3945 0.133282 0.137485 
14.3267 2.97092 0.114416 
14.4138 0.0389813 2.92939 
13.0838 1.46215 1.56871 
14.5261 2.81587 2.91083 
15.7919 1.40565 1.47832 
17.1588 0.141104 0.154485 
17.0142 2.88793 0.0787266 
19.9274 3.05701 0.0425472 
17.2702 0.132882 2.95089 
19.919 0.145698 2.86223 
17.1432 3.05583 2.92796 
18.7352 1.56827 1.38725 
20.161 3.03271 2.82256 
22.8259 2.92524 0.0388529 
22.8129 0.0584688 2.87737 
21.5149 1.50635 1.46989 
22.9447 2.78723 2.78645 
24.3705 1.38034 1.54015 
25.8111 0.0462105 2.72989 
25.7785 2.84708 3.00685 
27.3145 1.48466 1.41648 
2.76127 5.47891 0.0891126 
2.8274 5.68515 2.97978 
1.43157 7.01888 1.39055 
4.29541 4.15918 1.49407 
5.7296 5.46678 2.96113 
7.08136 4.36389 1.41721 
4.2937 7.19157 1.4784 
7.12738 7.03881 1.32564 
8.66893 5.73158 2.97463 
9.92417 4.21488 1.41636 
11.287 5.72058 2.96515 
9.8886 7.13711 1.56322 
12.7369 4.3379 1.5375 
14.3382 5.78105 2.85679 
15.6536 4.37763 1.43486 
12.8224 7.19561 1.67188 
15.8608 7.26863 1.56599 
17.1474 5.73573 2.82408 
18.4254 4.31656 1.3109 
19.9968 5.69446 2.90136 
18.5803 7.30868 1.54923 
16.9571 5.76488 0.149667 
19.9434 5.80819 0.113484 
21.4836 4.36037 1.40713 
23.0206 5.8405 2.83921 
24.3543 4.40408 1.39317 
21.4609 7.2717 1.42638 
24.3695 7.0618 1.42567 
28.5727 5.73486 2.7737 
25.712 5.71671 2.75874 
27.1865 4.17917 1.35648 
27.2494 7.01633 1.21076 
0.0442334 11.3599 0.14268 
3.00447 11.6138 0.142733 
2.78311 8.4807 2.90847 
0.0597258 11.4581 2.8184 
1.5551 9.96301 1.40348 
2.91522 11.5526 2.90807 
5.73452 11.417 0.154596 
5.78657 8.41338 2.85189 
4.32276 9.89413 1.44053 
5.67339 11.3285 2.9817 
7.1177 9.92442 1.49236 
8.3797 8.60073 0.0565249 
8.63384 11.5755 0.0797704 
11.5076 11.2622 0.129734 
8.42721 8.55711 2.9279 
11.459 8.52578 3.16299 
8.40055 11.3545 2.75984 
10.0452 9.9616 1.50083 
11.3013 11.5128 2.92849 
11.3474 8.48891 0.179785 
14.3623 8.41699 3.23189 
12.8624 10.0176 1.73426 
14.2931 11.5723 2.98582 
15.5216 9.87837 1.45298 
14.1488 8.42542 0.321104 
14.233 11.4339 0.181602 
17.2 8.68626 2.95512 
20.1635 8.56423 3.03612 
17.332 11.5716 2.8374 
18.6709 10.0694 1.47036 
19.9843 11.4189 2.87708 
17.0975 8.59732 0.204177 
17.2894 11.338 0.236247 
23.0248 8.702 2.86604 
21.4976 10.1069 1.31472 
22.8541 11.4529 2.97878 
24.2707 9.88603 1.29564 
28.6823 8.62653 0.0762131 
28.5899 8.69278 2.91348 
25.9261 8.5851 2.85654 
25.5801 11.4206 2.65669 
27.2364 10.0042 1.4254 
2.81878 14.4285 0.0758693 
1.37366 12.9024 1.35352 
2.8522 14.318 2.73222 
1.26212 15.8392 1.50912 
4.52357 12.9686 1.43394 
5.67949 14.477 2.96473 
6.98926 13.0112 1.50415 
4.22575 15.7797 1.32417 
7.2116 15.7564 1.46394 
8.75694 14.227 0.0692171 
11.6121 14.1901 0.0139836 
8.63288 14.3348 2.91545 
9.9884 12.7966 1.4241 
11.2904 14.1312 2.92038 
10.1503 15.687 1.48241 
12.9027 12.8532 1.62015 
14.3096 14.3147 2.93096 
15.5783 12.8494 1.34058 
12.9663 15.7077 1.53219 
15.8007 15.8312 1.47041 
17.0663 14.3645 2.70937 
18.6618 12.9716 1.4851 
20.0209 14.5151 2.93748 
18.534 15.7881 1.29628 
17.2474 14.2108 0.14936 
20.1299 14.2542 0.0161228 
21.3662 12.8654 1.51022 
22.8526 14.2069 2.86658 
24.1401 12.9042 1.42834 
21.3483 15.8415 1.32981 
24.2576 15.7111 1.38442 
28.4611 14.2854 2.88644 
25.7654 14.3698 2.64486 
27.2331 12.8443 1.3948 
27.2506 15.8018 1.38965 
0.0139822 20.177 0.0323898 
2.84706 17.2195 2.82631 
1.24449 18.596 1.27733 
2.9808 20.1562 2.98717 
5.8384 20.049 0.0606913 
5.74793 17.2946 2.95092 
4.36675 18.657 1.43827 
6.02734 20.1915 2.77993 
7.26204 18.6098 1.36683 
8.85823 17.2258 0.111143 
11.367 17.2388 0.0241044 
8.53269 17.1648 2.79267 
11.6469 17.3417 2.81559 
8.62534 20.1862 2.80468 
10.14 18.7024 1.62303 
11.7614 19.9636 3.03638 
14.3814 20.1649 0.0281509 
14.3073 17.22 2.96116 
13.0238 18.7792 1.27041 
14.555 20.0385 2.87623 
15.7797 18.5655 1.40222 
17.1897 20.046 0.0314014 
17.2947 16.9201 3.04089 
20.0362 17.2593 2.95395 
17.1927 20.2343 3.03854 
18.5299 18.7053 1.52349 
20.3057 20.2129 2.88593 
17.1765 17.3083 0.0141138 
19.9406 17.4229 0.0106686 
22.9701 17.1197 0.057957 
22.8636 20.0068 0.0611174 
22.9156 17.091 2.67861 
21.4353 18.6049 1.58407 
23.1643 20.0232 2.88449 
24.5048 18.728 1.31379 
28.5819 17.0716 2.82799 
28.6701 19.8697 2.92546 
25.7978 17.2069 0.185312 
25.7584 17.2699 2.81043 
25.9353 19.8926 2.83793 
27.4147 18.5588 1.20773 
1.42833 21.3557 1.43794 
2.86635 22.8219 2.74121 
1.29613 24.1563 1.31472 
5.73734 22.9965 0.00203373 
4.33817 21.5229 1.46676 
5.72975 23.062 2.59546 
7.33589 21.7208 1.20051 
4.29246 24.4469 1.31975 
7.08927 24.5401 1.37817 
8.50164 23.0264 2.79079 
10.3282 21.5392 1.36594 
11.6865 23.116 2.93877 
9.99784 24.3147 1.52179 
14.3453 22.9742 0.238842 
13.0146 21.6195 1.57253 
14.3083 22.86 3.07096 
15.9142 21.5288 1.44655 
12.8126 24.4738 1.56034 
15.7683 24.509 1.50282 
17.3017 23.0463 0.152371 
20.0078 23.0424 0.105644 
17.309 22.9372 3.00759 
18.6207 21.6902 1.47688 
20.0623 22.7669 3.00986 
18.6715 24.5146 1.52073 
21.5729 21.5078 1.28678 
22.8463 23.0145 2.90919 
24.3868 21.6204 1.52318 
21.4633 24.2671 1.53788 
24.2842 24.3969 1.44239 
28.6197 22.8813 0.0720239 
28.6294 22.9829 2.84991 
25.8162 23.0419 0.0318712 
25.7989 22.9695 2.8746 
27.1167 21.5388 1.43149 
27.2652 24.5423 1.42669 
0.0228126 28.6592 2.76153 
2.67019 28.6914 2.78003 
0.049227 25.8658 2.71501 
2.72759 25.677 2.80485 
1.48842 27.1858 1.43652 
5.58823 25.6754 2.70997 
4.37531 27.3771 1.43864 
7.14453 27.2454 1.4091 
11.3565 28.5872 0.0716966 
11.4172 25.7901 0.0553924 
8.45976 25.9687 2.82252 
11.3621 25.882 2.75161 
9.8054 27.3353 1.38966 
14.4358 25.7514 0.231069 
14.29 25.8718 2.8249 
12.8806 27.2858 1.41748 
15.7697 27.3303 1.3633 
20.1808 28.6244 0.0361608 
17.1955 25.8292 0.016579 
20.0833 25.851 0.121335 
17.1853 25.9515 2.84895 
20.0276 25.9876 2.84726 
18.5857 27.1388 1.41053 
23.0422 28.6097 0.0378426 
22.8872 25.8491 0.0328164 
22.7266 26.0216 2.84874 
21.3429 27.3282 1.34352 
24.2987 27.2381 1.27766 
28.6675 25.8471 0.013553 
25.7971 25.8844 0.0191069 
25.6722 25.8781 2.66639 
27.1269 27.3236 1.46921 
27.2248 27.1549 4.09815 
2.7535 0.0179513 5.71151 
1.23876 1.41595 4.40642 
2.80177 2.84889 5.82634 
1.4662 1.39131 7.19908 
5.69477 0.191407 5.78567 
4.14257 1.30843 4.23027 
5.66709 2.74185 5.79308 
7.28417 1.47458 4.22145 
4.29973 1.42871 7.23364 
7.23462 1.48219 7.31188 
8.45228 2.7513 5.84974 
9.87542 1.43809 4.24154 
11.3813 2.67031 5.75601 
9.84676 1.27414 7.12657 
11.4867 0.0884633 5.58444 
13.0788 1.45959 4.27946 
14.109 2.84193 5.81149 
15.679 1.50454 4.39101 
12.8373 1.32269 7.36795 
15.7943 1.30218 7.20167 
14.1421 0.173207 5.87591 
17.1906 3.03525 5.82361 
18.6795 1.65941 4.19483 
20.1117 2.81748 5.77012 
18.6004 1.51529 7.17377 
17.3368 0.21205 5.79804 
20.0479 0.135357 5.80193 
21.4111 1.41757 4.22362 
22.9899 2.73246 5.52181 
24.418 1.37817 4.33723 
21.4464 1.40161 7.13575 
24.3524 1.58359 7.1948 
22.8515 0.0382915 5.71477 
28.5686 2.85377 5.76711 
25.6816 3.04013 5.72743 
27.1754 1.24203 4.30521 
27.2305 1.44681 7.15845 
0.00498676 5.67329 5.69897 
1.30412 4.34012 4.2894 
2.70986 5.82361 5.72571 
1.21731 7.05188 4.27941 
1.51356 4.37523 7.3344 
1.29072 7.20207 7.12979 
4.18817 4.18489 4.45117 
5.79711 5.75032 5.69708 
7.08651 4.17598 4.28773 
4.24264 7.20132 4.35179 
7.19867 7.00626 4.36299 
4.15008 4.2254 7.21676 
7.13271 4.13176 7.10992 
4.25125 7.20534 6.96634 
7.247 7.38607 7.16582 
8.6639 5.65128 5.85968 
10.0904 4.14868 4.49226 
11.5175 5.59153 5.70112 
9.93286 7.00124 4.40186 
10.143 4.24124 7.27212 
10.1642 7.10779 7.2138 
12.7867 4.26933 4.19673 
14.3911 5.82058 5.80167 
15.6777 4.34637 4.36567 
12.7496 7.16464 4.53065 
15.8933 6.96374 4.28787 
12.8317 4.22422 7.21628 
15.7395 4.24968 7.15964 
12.8999 7.1681 7.21305 
15.7984 7.23243 7.21873 
17.2759 5.87416 5.82566 
18.6669 4.27751 4.32946 
19.9494 5.89841 5.70809 
18.6041 7.06407 4.14861 
18.8872 4.37977 7.11398 
18.5822 7.30415 7.28654 
21.628 4.34564 4.20801 
23.0692 5.858 5.82446 
24.4432 4.24649 4.26161 
21.5094 7.20332 4.40085 
24.2701 7.29705 4.19015 
21.6123 4.30098 7.17289 
24.3472 4.39036 7.19482 
21.5077 7.26592 7.11441 
24.2799 7.23955 7.06206 
25.8914 5.64705 5.58456 
27.4357 4.15274 4.17038 
27.3026 7.03165 4.24602 
27.3101 4.21997 7.20545 
27.3655 7.10519 7.14559 
0.0740082 8.64259 5.69285 
2.66953 8.62281 5.54054 
0.0743939 11.6419 5.74631 
1.42944 10.0406 4.29134 
2.97165 11.5401 5.70482 
1.4216 10.1841 7.00316 
5.73636 8.49898 5.66835 
4.22741 9.87836 4.29737 
5.76489 11.5768 5.89597 
7.19543 10.1266 4.4632 
4.17432 9.85644 6.9251 
7.09922 9.86977 7.07341 
8.6627 8.46751 5.80937 
11.4807 8.60569 5.92024 
8.65198 11.3633 5.89831 
9.85528 10.0311 4.29949 
11.4859 11.5122 5.90104 
10.1376 9.9357 7.30207 
14.3075 8.67502 5.69201 
12.7358 10.0811 4.35885 
14.3232 11.392 5.77431 
15.62 10.0129 4.26539 
13.0193 10.0345 7.32074 
15.9832 9.99022 7.19371 
17.167 8.64628 5.59714 
19.8808 8.72461 5.71748 
17.15 11.4641 5.79031 
18.5631 10.0453 4.22369 
19.9868 11.5058 5.79682 
18.4127 10.071 7.15272 
23.0316 8.68325 5.75956 
21.3817 10.103 4.38509 
23.0133 11.4436 5.80777 
24.3793 9.82297 4.30208 
21.5753 9.99617 7.1265 
24.4867 9.95793 7.31617 
25.916 8.52772 5.84469 
25.6511 11.5775 5.6544 
27.1788 10.1551 4.4357 
27.2731 10.2203 7.13843 
1.44435 12.9308 4.25027 
2.80284 14.2401 5.70538 
1.34419 15.766 4.27567 
1.3647 13.0525 7.34849 
1.65592 15.858 7.08195 
4.34384 12.8933 4.26821 
6.01026 14.4038 5.82734 
7.35569 12.9514 4.45079 
4.19776 15.7775 4.31572 
7.29796 15.6274 4.36743 
4.37265 12.8375 7.20973 
7.24991 13.0704 7.31224 
4.46618 15.9007 7.0834 
7.36082 16.0167 7.23951 
8.71112 14.4327 5.90341 
9.96741 12.8686 4.36596 
11.5028 14.3183 5.70467 
10.1648 15.8542 4.3404 
10.1773 12.9949 7.23432 
9.90159 15.8045 7.34262 
12.8247 12.9648 4.45162 
14.4071 14.2372 5.67288 
15.8154 12.8039 4.22099 
12.8334 15.8597 4.41874 
15.7696 15.6814 4.17563 
12.8394 12.8577 7.35212 
15.7178 12.9499 7.28924 
12.9422 15.8572 7.30216 
15.8069 15.8766 7.00241 
17.0885 14.2588 5.90947 
18.5083 13.0567 4.34271 
20.1594 14.3443 5.91493 
18.6722 15.7419 4.348 
18.6381 12.7401 7.36418 
18.6306 15.6968 7.04862 
21.5294 12.7341 4.47386 
22.9161 14.3458 5.89943 
24.4725 12.8174 4.16576 
21.5703 15.7649 4.48041 
24.4188 15.6699 4.28033 
21.5142 12.9779 7.34112 
24.338 13.1222 7.25437 
21.5433 15.9218 7.30026 
24.3832 15.6795 7.12503 
28.5854 14.2574 5.68961 
25.848 14.4222 5.64831 
27.183 12.9344 4.22162 
27.1538 15.8591 4.27458 
27.3675 12.9074 7.21497 
27.23 15.4426 7.2279 
2.93557 17.4235 5.56293 
1.27454 18.6071 4.27324 
2.69408 20.0224 5.70358 
1.39441 18.9188 7.38361 
5.71796 17.2779 5.65915 
4.34369 18.9181 4.38134 
5.83098 20.245 5.81239 
7.25412 18.7682 4.1304 
4.22131 18.5707 7.33911 
7.41697 18.9945 7.18924 
8.59035 17.3063 5.75995 
11.468 17.1949 5.95649 
8.84025 20.2311 5.62435 
10.167 18.6131 4.32374 
11.6948 19.9272 5.74313 
10.039 18.7898 7.11972 
14.3677 17.2704 5.68549 
12.9952 18.572 4.38037 
14.2773 20.3457 5.66717 
15.7176 18.4186 4.2142 
13.1421 18.8313 7.20651 
15.8832 18.7509 6.99939 
17.3589 17.144 5.63966 
20.1203 17.3535 5.64569 
17.0679 20.0476 5.72336 
18.6776 18.7483 4.46463 
20.1287 20.1794 5.7854 
18.5439 18.7136 7.12203 
22.9928 17.2059 5.75118 
21.5534 18.568 4.39722 
23.0279 19.9851 5.70805 
24.4121 18.5691 4.2029 
21.2938 18.5778 7.10158 
24.3503 18.6425 7.1386 
28.6742 17.158 5.97577 
28.6943 20.1571 5.84226 
25.9705 17.1682 5.69785 
25.8103 19.8369 5.6629 
27.3822 18.6017 4.32774 
27.2506 18.7371 7.17261 
1.39131 21.526 4.24222 
2.95807 23.0561 5.89142 
1.54088 24.2762 4.45547 
1.5275 21.6294 7.15546 
1.31468 24.4369 7.1831 
4.37371 21.6297 4.38468 
5.83574 23.0838 5.75513 
7.11809 21.666 4.3413 
4.25461 24.3332 4.24481 
7.27644 24.3815 4.16316 
4.36986 21.5817 7.30569 
7.29564 21.7056 7.12733 
4.27305 24.4932 7.37118 
7.30226 24.5664 7.20898 
8.74066 23.027 5.68573 
10.1673 21.5697 4.30042 
11.5119 23.0387 5.82651 
10.1951 24.5587 4.22108 
10.2872 21.4727 7.21294 
10.1814 24.3753 7.20376 
12.8618 21.7077 4.33012 
14.4532 23.0627 5.78228 
15.7592 21.5883 4.43198 
13.0363 24.5182 4.39138 
15.6194 24.439 4.13889 
13.0024 21.6875 7.24299 
15.7166 21.5995 7.26443 
12.9148 24.5797 7.17709 
15.8641 24.4958 7.24984 
17.1594 22.9437 5.75118 
18.668 21.5675 4.45631 
19.7695 23.1761 5.62344 
18.5718 24.5852 4.29836 
18.708 21.5802 7.05628 
18.4775 24.5942 7.07674 
21.4367 21.6313 4.47376 
22.8532 23.1194 5.76713 
24.3662 21.6081 4.2977 
21.4415 24.5297 4.24257 
21.5596 21.6591 7.19524 
24.2533 21.629 7.21454 
21.5277 24.5632 7.23364 
24.3166 24.3415 7.07499 
28.6414 22.9908 5.76049 
25.7763 23.1149 5.69347 
27.2221 21.583 4.28901 
27.1669 21.5752 6.93846 
27.1784 24.4162 7.23968 
0.00746223 25.8265 5.66726 
2.86347 25.8989 5.64085 
1.45837 27.2154 4.31914 
1.51503 27.2395 7.03758 
5.78409 25.5956 5.75388 
4.20392 27.159 4.41856 
7.10563 27.1799 4.30508 
4.34641 27.2067 7.13288 
7.114 27.3088 7.17309 
8.44399 28.6786 5.6384 
8.70664 25.7272 5.74763 
11.6247 25.8976 5.58395 
9.86133 27.4125 4.20395 
10.0534 27.2779 7.00042 
14.449 26.2184 5.83342 
12.9003 27.3181 4.30569 
15.7631 27.3993 4.22107 
12.8825 27.324 7.18132 
15.9001 27.4097 7.13488 
17.0141 25.8905 5.70037 
20.0208 26.1228 5.73775 
18.5127 27.4164 4.2623 
18.729 27.3086 7.10319 
24.368 24.6779 4.17237 
22.817 25.9429 5.80641 
21.3385 27.4066 4.21825 
24.3993 27.1796 4.32216 
21.4848 27.1308 7.23267 
24.4122 27.3179 7.15055 
28.6363 28.5532 5.72956 
25.6904 28.6149 5.7497 
27.3756 24.6298 4.3313 
25.797 25.8905 5.8897 
27.3114 27.2672 7.10846 
0.209004 2.83839 8.74821 
3.00326 2.79022 8.87379 
1.38003 1.35427 10.1783 
3.00739 2.81084 11.4858 
5.79342 0.112741 8.39765 
5.72273 2.95701 8.68921 
4.43052 1.2765 10.1003 
5.71342 3.03214 11.5553 
7.01899 1.51442 10.1738 
8.78532 0.0194914 8.71997 
8.60834 2.96057 8.68897 
11.4855 2.85521 8.51608 
8.84577 0.0750299 11.5049 
11.5262 0.0762374 11.2792 
8.79298 2.89077 11.2902 
10.219 1.52474 9.88358 
11.7 2.8679 11.244 
14.313 2.81939 8.63588 
13.049 1.30566 10.2471 
14.5053 2.91276 11.4527 
15.9502 1.47014 10.0202 
17.3341 2.93372 8.6009 
20.3838 2.86661 8.52454 
17.2982 2.82873 11.5433 
18.7207 1.49913 9.88405 
20.2352 2.85603 11.5274 
18.8204 4.08308 10.0266 
17.3612 0.0167538 8.60733 
20.2113 0.0402704 8.50856 
17.3362 0.252463 11.5369 
19.9997 0.0472669 11.4351 
22.7768 2.64278 8.67573 
21.5949 1.34694 10.1076 
23.0256 2.85905 11.4384 
24.3509 1.54665 10.0604 
28.6936 0.0233566 11.4417 
28.602 2.90249 11.5074 
25.8258 0.113445 8.48996 
25.8246 2.96533 8.62438 
25.8196 0.0875916 11.3625 
25.622 3.0231 11.623 
27.2493 1.53095 9.99718 
0.0917637 5.72668 8.70182 
3.09339 5.75408 8.70341 
1.53695 4.19277 10.1884 
2.77948 5.82785 11.4687 
1.55162 7.16916 10.021 
5.87133 5.79665 8.50995 
4.39796 4.34755 10.2066 
5.82444 5.86798 11.5705 
7.20641 4.45935 10.0326 
4.51694 7.44222 10.1023 
7.27388 7.27266 10.2249 
8.48313 5.96824 8.59216 
11.4955 5.70986 8.54908 
8.56354 5.64414 11.4665 
10.1462 4.39594 9.96662 
11.5634 5.92581 11.5536 
10.0126 7.23012 10.1173 
14.4942 5.73963 8.68609 
12.9485 4.35179 10.1042 
14.438 5.5271 11.5946 
15.8429 4.25496 10.2213 
12.8727 7.0537 10.1113 
15.8596 7.11954 10.0021 
17.3142 5.78005 8.44584 
20.3442 5.79642 8.5248 
17.3825 5.67697 11.5556 
20.1124 5.78037 11.5535 
18.8426 6.94815 9.99698 
23.0329 5.78798 8.6448 
21.5831 4.3733 10.0728 
23.0033 5.88435 11.6931 
24.293 4.20744 10.0582 
21.5846 7.16989 10.1408 
24.5854 7.14387 10.0295 
28.6052 5.72183 11.4159 
25.804 5.72639 8.56095 
25.9616 5.82173 11.3887 
27.264 4.32105 10.0015 
27.5267 7.15816 9.88385 
0.0977606 8.73242 8.49984 
3.03384 8.56281 8.62734 
0.0887258 11.6046 8.68395 
2.88825 11.4257 8.55184 
0.0921348 8.68649 11.501 
2.95363 8.5866 11.4742 
1.46483 10.1433 10.0496 
2.90658 11.6784 11.3921 
5.92397 8.59702 8.66772 
5.75189 11.471 8.46806 
5.79169 8.76408 11.6498 
4.30719 10.1088 10.1155 
5.71293 11.5843 11.5911 
7.21451 10.1009 10.1042 
8.65083 8.53755 8.70809 
11.5264 8.67526 8.70979 
8.71113 11.635 8.7801 
11.5919 11.4673 8.64901 
8.6101 8.70867 11.5352 
11.4635 8.52227 11.761 
8.66551 11.6842 11.5625 
9.98294 10.1488 10.1727 
11.4888 11.4536 11.5479 
14.3697 8.80919 8.57148 
14.4192 11.4687 8.58212 
14.4154 8.54401 11.3339 
12.8818 10.0204 10.2534 
14.3278 11.5787 11.3993 
15.7511 10.2006 10.0664 
17.2733 8.55321 8.67759 
20.1698 8.7073 8.747 
17.3484 11.4558 8.69015 
20.1197 11.4197 8.59476 
17.0578 8.47185 11.3714 
20.1092 8.62142 11.6641 
17.3543 11.6005 11.5345 
18.6511 9.92192 10.0838 
20.1186 11.3923 11.5836 
23.0273 8.44452 8.78344 
22.9051 11.4298 8.6048 
23.2647 8.75651 11.453 
21.6302 10.1103 10.1387 
22.97 11.3562 11.5223 
24.5824 9.97833 9.90461 
28.671 11.4636 11.264 
25.9416 8.50981 8.6738 
25.8003 11.6707 8.62209 
26.1124 8.54812 11.5853 
25.8099 11.4187 11.3829 
27.3059 10.0232 10.0081 
0.126804 14.4706 8.62353 
2.91121 14.3713 8.71296 
0.123023 14.4698 11.4642 
1.47725 13.0315 10.069 
2.74686 14.5152 11.5539 
1.49017 15.8281 9.96682 
5.65517 14.4742 8.65229 
4.45222 13.0127 10.0512 
5.78843 14.4871 11.4849 
7.22199 12.9496 9.87637 
4.26184 15.7528 9.95607 
7.40337 15.7694 10.1214 
8.7282 14.3745 8.70162 
11.5116 14.2303 8.80693 
8.74635 14.3083 11.3844 
10.1651 12.9598 10.1285 
11.4828 14.4779 11.4471 
10.1652 15.7255 9.97206 
14.3501 14.4813 8.53148 
13.127 13.0681 10.0697 
14.6227 14.2516 11.5528 
15.9918 12.8406 10.0003 
12.9327 15.8559 9.99259 
15.9474 15.6883 9.83547 
17.1286 14.3369 8.55691 
20.0998 14.2808 8.59379 
17.3776 14.3665 11.2393 
18.8504 12.9227 10.136 
20.0045 14.3765 11.4093 
18.7179 15.8465 10.0018 
23.1039 14.2515 8.8521 
21.6473 12.94 10.0961 
23.1223 14.3385 11.6583 
24.3111 12.823 10.1737 
21.5749 15.8624 10.1859 
24.625 15.9756 10.0573 
25.8628 14.3435 8.69463 
25.836 14.3225 11.4242 
27.3399 13.0693 10.1695 
27.2929 15.766 10.0383 
0.0308685 17.1762 8.61934 
2.75005 17.1863 8.54095 
2.90146 19.9157 8.66767 
0.0409352 17.3932 11.5093 
2.89131 17.2697 11.5091 
0.0864523 20.0359 11.3684 
1.60661 18.755 10.0999 
3.02571 20.1742 11.4854 
5.87709 17.2458 8.67636 
6.03971 20.2401 8.7004 
5.9385 17.2934 11.4824 
4.55034 18.7126 10.0605 
5.77498 20.1812 11.3862 
7.37378 18.7665 10.0333 
8.70074 17.3448 8.72798 
11.4197 17.4624 8.56571 
8.90714 20.199 8.53229 
11.6067 20.1569 8.62994 
8.67663 17.2433 11.5693 
11.6132 17.2016 11.5503 
8.7797 20.18 11.3247 
10.1486 18.7286 10.1116 
11.5809 20.0151 11.443 
14.5088 17.2818 8.58193 
14.2583 20.1859 8.56335 
14.3344 17.3208 11.456 
12.9086 18.6565 10.1491 
14.455 20.0341 11.3915 
15.9179 18.6575 9.98102 
17.1775 17.2285 8.40873 
20.1617 17.1762 8.5422 
17.1777 20.171 8.53682 
19.9733 20.1532 8.61101 
17.09 17.446 11.5229 
20.0444 17.2557 11.4664 
17.1612 20.0779 11.4693 
18.6194 18.6545 10.0381 
20.3306 20.1198 11.5322 
23.1261 17.2915 8.51448 
22.8208 20.2095 8.67176 
23.1051 17.4036 11.3616 
21.5218 18.6598 9.83945 
22.8839 20.1151 11.3207 
24.5729 18.9768 10.0903 
28.5954 20.1174 8.66325 
25.9395 17.3517 8.52789 
25.7735 20.4074 8.57733 
25.7038 17.3992 11.6318 
25.9048 20.3381 11.582 
27.2603 18.8009 10.1369 
2.86453 23.0522 8.70353 
0.016314 22.8818 11.4269 
1.48161 21.4803 9.96139 
2.73436 22.976 11.5246 
1.40357 24.4124 9.98184 
5.99348 22.9325 8.5711 
4.45775 21.7177 10.1273 
5.88835 23.1578 11.4302 
7.37874 21.5139 10.2136 
4.36985 24.4345 10.0706 
7.4225 24.4593 10.041 
8.89489 23.0984 8.49393 
11.6787 22.9116 8.6637 
8.75867 23.1661 11.4077 
10.2066 21.503 10.058 
11.5328 22.8109 11.4603 
10.2899 24.253 9.96542 
14.5189 23.0589 8.56072 
12.9604 21.5205 10.205 
14.5524 22.6826 11.4894 
15.9511 21.5642 10.1269 
13.1408 24.2655 10.1937 
15.8603 24.3877 10.0836 
17.3076 22.9897 8.70649 
20.0384 23.1086 8.58991 
17.383 22.9656 11.4276 
18.7097 21.4586 10.0366 
20.0353 22.8799 11.4783 
18.7652 24.4094 10.2047 
22.7661 23.0081 8.66683 
21.4621 21.6806 9.94998 
22.9568 23.0887 11.5243 
24.3598 21.6438 9.86721 
21.6016 24.4743 10.0036 
24.3322 24.4071 9.96234 
28.7032 22.88 8.40851 
25.7911 22.8941 8.53139 
25.7255 22.8946 11.4396 
27.3254 21.7283 9.93127 
27.302 24.4531 9.89646 
0.062571 28.6623 8.53037 
3.04817 28.6218 8.57177 
2.81873 28.4671 11.5345 
2.83915 25.8591 8.65177 
2.9169 25.7091 11.5065 
1.34893 27.0515 10.0765 
5.81081 28.672 11.5002 
5.89552 25.9246 8.71154 
5.90138 25.9033 11.4925 
4.3506 27.2016 10.1707 
7.08624 27.4452 10.1477 
11.483 28.6263 8.61367 
8.74082 25.9068 8.5109 
11.5447 25.7621 8.52811 
8.613 25.9554 11.2621 
11.6051 25.777 11.4718 
10.3271 27.1979 10.079 
14.2439 28.6065 8.55123 
14.4947 28.6064 11.4588 
14.445 25.862 8.61255 
14.5687 25.7668 11.5089 
13.0708 27.1935 10.1094 
15.8725 27.255 10.0616 
17.4043 25.7594 8.78919 
20.1106 25.9368 8.74863 
17.2741 25.7469 11.5677 
20.0066 25.8827 11.4582 
18.7358 27.371 10.0601 
23.0735 28.6736 11.4805 
22.983 28.6593 8.52302 
23.0867 25.8085 8.58487 
22.8778 25.8921 11.3675 
21.4846 27.3936 9.96817 
24.1957 27.2188 10.0859 
28.5958 25.8212 8.58055 
28.6247 25.8714 11.6293 
25.8101 25.9631 8.59708 
25.7919 25.8434 11.4057 
27.1131 27.5096 9.98749 
2.75656 0.109721 14.3554 
0.155382 2.84495 14.4412 
1.39315 1.44359 12.8409 
2.95257 2.68893 14.3679 
1.44703 1.47517 15.7936 
5.75834 0.146392 14.3773 
4.4537 1.43383 12.9337 
6.11407 2.82578 14.454 
7.16899 1.52365 12.9001 
4.38361 1.63849 15.7244 
7.47279 1.30474 15.6949 
8.79641 0.0258489 14.2596 
8.83257 2.93629 14.5227 
10.1872 1.50685 12.8812 
11.5002 2.79019 14.4145 
10.1535 1.42743 15.7976 
12.9358 1.42534 12.8382 
14.545 2.63689 14.4669 
15.9763 1.36913 12.8986 
12.9595 1.23024 15.8055 
16.0473 1.29506 15.7953 
14.3316 0.0118979 14.3743 
17.2838 2.77972 14.4352 
18.8485 1.50766 12.8957 
20.3491 2.88641 14.3314 
18.9585 1.5081 15.8163 
17.4165 0.0899685 14.2765 
22.9737 0.0854319 14.3044 
21.6543 1.44882 12.98 
23.2146 3.05844 14.2366 
24.3945 1.42293 12.8872 
21.6719 1.36562 15.7934 
24.3601 1.45379 15.5531 
28.5704 0.145099 14.1989 
25.8541 2.83733 14.2848 
27.1595 1.4956 12.8943 
27.3421 1.4973 15.8412 
0.0372289 5.86303 14.2754 
1.48746 4.21481 12.9591 
2.84722 5.86024 14.4393 
1.46284 7.11937 13.0433 
1.43613 4.46252 15.9187 
1.41338 7.0828 15.8338 
4.24196 4.22932 13.0231 
5.73284 5.83222 14.3655 
7.45601 4.22752 13.0626 
4.46221 7.30559 12.84 
7.31076 7.20626 12.8854 
4.23034 4.29232 15.7145 
7.40284 4.35838 15.8748 
4.30534 7.18896 15.7092 
7.29198 7.15231 15.7971 
8.6228 5.65718 14.2612 
10.2972 4.40897 12.7061 
11.4641 5.75724 14.4042 
10.0651 7.14211 12.9989 
9.93926 4.32046 15.6849 
10.0945 7.2242 15.8011 
12.9252 4.20865 12.8497 
14.4263 5.53911 14.2429 
15.9992 4.31544 12.9796 
13.0167 7.20888 13.0057 
15.8657 7.04773 12.8965 
13.0769 4.26652 15.6079 
15.8139 4.17714 15.6637 
13.0026 7.08232 15.7129 
15.8039 7.02374 15.6873 
17.4126 5.7723 14.3579 
18.5929 4.24817 12.9156 
20.1784 5.65534 14.4445 
18.5596 7.28472 12.9295 
18.6512 4.13161 15.6928 
18.6729 7.0486 15.8321 
21.5437 4.3492 12.9109 
23.1185 5.98222 14.4659 
24.5181 4.5547 12.9404 
21.4898 7.16226 13.0715 
24.5404 7.38677 12.8797 
21.6099 4.37712 15.7766 
24.5193 4.24974 15.6208 
21.4944 7.23126 15.9174 
24.4775 7.44294 15.863 
25.807 5.8779 14.3816 
27.3603 4.28391 12.875 
27.4841 7.07998 12.9013 
27.321 4.28645 15.8617 
27.2872 7.12263 15.7479 
0.0210261 8.69679 14.4008 
2.92903 8.65548 14.2644 
0.0588164 11.4685 14.5312 
1.54134 9.97065 12.9565 
2.90362 11.4954 14.2438 
1.43219 10.1599 15.8034 
5.76605 8.60451 14.1091 
4.25111 10.2048 12.8897 
5.57157 11.411 14.2226 
7.32228 10.0788 12.7277 
4.4072 10.1356 15.7992 
6.94823 10.1304 15.7869 
8.46179 8.69008 14.2592 
11.4779 8.64001 14.3327 
8.41078 11.406 14.3714 
10.0574 10.1737 12.9767 
11.4751 11.4383 14.3979 
9.9295 10.0307 15.7784 
14.4488 8.74548 14.4061 
13.014 10.1381 12.9495 
14.3447 11.5682 14.342 
15.9107 10.092 12.9309 
12.9591 10.1545 15.985 
15.8794 10.2546 15.872 
17.1209 8.5832 14.4157 
20.1283 8.73648 14.4251 
17.2364 11.3459 14.3202 
18.5174 9.91119 13.0396 
20.2002 11.6235 14.1935 
18.5637 10.0539 15.8957 
22.9972 8.61541 14.5657 
21.6546 10.0008 12.8043 
23.0376 11.5038 14.2243 
24.5961 10.1603 13.0084 
21.4774 10.1691 15.6531 
24.3766 10.0787 15.7193 
25.9713 8.7169 14.3412 
25.9323 11.4631 14.5702 
27.2608 10.3055 12.956 
27.4965 9.96427 15.8758 
1.39855 12.9074 12.8367 
2.88162 14.2297 14.293 
1.50198 15.8929 12.8773 
1.50153 12.9594 15.7403 
1.3695 15.648 15.7737 
4.26869 12.9807 12.7938 
5.49546 14.3888 14.254 
7.11335 13.0323 12.8025 
4.26544 15.8249 12.8891 
7.32594 15.8891 12.8316 
4.44774 12.8017 15.6102 
6.98269 12.8343 15.691 
4.35546 15.7462 15.7676 
7.17775 15.7317 15.6609 
8.50121 14.2247 14.4141 
10.0884 13.0401 13.0704 
11.7203 14.3112 14.2766 
10.0992 15.885 12.8706 
9.94128 12.6805 15.5753 
10.1016 15.9417 15.8465 
12.8645 12.9599 12.6639 
14.2886 14.1777 14.1848 
15.8795 12.8438 12.9085 
12.8115 15.7636 12.9244 
15.8928 15.8099 12.8274 
12.9531 12.8595 15.7389 
15.9395 12.9079 15.6934 
12.7138 15.7296 15.6815 
15.2857 15.8535 15.3405 
17.2403 14.3295 14.5316 
18.7427 13.037 12.9598 
20.2927 14.3921 14.3043 
18.6337 15.9029 12.8837 
18.8843 12.9865 15.727 
18.9105 15.8595 15.5273 
21.6008 12.9885 12.791 
23.3672 14.3441 14.3379 
24.5317 12.9341 12.9125 
21.6129 15.8418 12.9896 
24.5305 15.8062 12.9474 
21.7855 13.0627 15.6601 
24.3172 12.7618 15.6628 
21.6981 15.7762 15.6342 
24.5932 15.8098 16.0197 
28.6998 14.4875 14.3748 
26.065 14.4764 14.5269 
27.2653 12.8669 12.9072 
27.3585 16.0154 12.7285 
27.5327 13.0097 15.9191 
27.3214 15.7373 15.9631 
0.0556352 17.0824 14.3738 
2.87534 17.1731 14.389 
0.293313 20.2632 14.3625 
1.44393 18.8236 12.9575 
2.93685 20.1338 14.1768 
1.3309 18.5974 15.9195 
5.78976 17.4107 14.5023 
4.32792 18.7508 12.8167 
5.85102 20.137 14.2449 
7.31888 18.794 12.7363 
4.28832 18.8118 15.6931 
7.39375 18.7516 15.8056 
8.79343 17.1839 14.4609 
11.6347 17.1823 14.4093 
8.64884 19.9115 14.2915 
10.1928 18.7786 12.8171 
11.5033 20.097 14.3731 
10.102 18.6401 15.7437 
14.3542 17.4001 14.016 
12.8724 18.723 12.8946 
14.582 20.0975 14.4818 
15.9109 18.7656 12.9622 
13.0501 18.5734 15.7051 
16.0453 18.6982 15.8231 
17.3174 17.2736 14.3229 
20.2394 17.1319 14.2572 
17.2676 20.0899 14.3346 
18.8755 18.8328 12.9117 
20.2117 20.0624 14.4093 
18.8497 18.588 15.6392 
23.0587 17.3197 14.3769 
21.5793 18.6546 12.912 
22.9976 20.2937 14.3229 
24.354 18.7856 12.9962 
21.4808 18.8058 15.7715 
24.4262 18.6918 15.798 
25.9452 17.1064 14.3924 
25.9659 20.2029 14.3419 
27.3385 18.8017 13.0063 
27.3858 18.7072 15.6628 
0.0465549 22.9352 14.4073 
1.42777 21.6737 12.8503 
2.97455 22.946 14.1476 
1.34818 24.5506 13.027 
1.65168 21.6891 15.7316 
1.54823 24.435 15.7579 
4.44979 21.6527 12.8193 
6.00733 22.8182 14.2931 
7.30765 21.3705 12.8938 
4.32297 24.5584 12.878 
7.3045 24.4198 12.8282 
4.29169 21.588 15.571 
7.31303 21.4808 15.853 
4.38956 24.331 15.6308 
7.20275 24.387 15.7067 
8.60707 22.7805 14.1942 
10.0985 21.5527 12.9213 
11.7168 23.0359 14.3791 
10.2721 24.4172 12.9213 
10.1604 21.5646 15.5706 
10.1284 24.3435 15.8784 
13.0648 21.3417 12.8727 
14.4646 22.9517 14.2816 
15.9562 21.5267 12.9373 
12.897 24.2333 12.9541 
15.6322 24.2982 12.8659 
13.0043 21.5216 15.7577 
15.9008 21.4953 15.7966 
12.9748 24.5119 15.905 
15.7959 24.3035 16.0338 
17.4448 23.0852 14.3075 
18.6532 21.5675 12.7393 
20.2682 22.9924 14.2671 
18.6891 24.4638 13.0535 
18.7885 21.6179 15.6502 
18.7937 24.3591 15.8944 
21.594 21.5851 12.851 
23.1022 22.8353 14.3662 
24.3247 21.3962 12.9263 
21.5472 24.4188 12.6956 
24.4207 24.5534 12.9512 
21.4564 21.6392 15.9154 
24.3378 21.4217 15.8297 
21.4451 24.4172 15.816 
24.5542 24.1189 15.9178 
25.8765 22.9416 14.2498 
27.3522 21.6903 12.9417 
27.1202 24.4899 12.7618 
27.2062 21.524 15.7089 
27.1731 24.3572 15.8105 
2.94881 25.7514 14.3826 
1.52654 27.1184 13.1611 
1.40228 27.2852 15.6863 
5.76288 25.8965 14.2691 
4.30636 27.3581 12.9793 
7.15001 27.4782 12.9251 
4.32394 27.3046 15.6328 
7.21312 27.2548 15.8655 
11.5449 28.6417 14.3161 
8.6284 25.8391 14.1844 
11.6633 25.9678 14.2995 
10.2016 27.3539 12.7049 
10.2027 27.3341 15.6175 
14.5567 25.7461 14.2939 
13.0829 27.4129 12.8088 
15.9844 27.4602 12.8922 
13.0854 27.245 15.7202 
15.8577 27.3181 15.7255 
19.9304 28.5839 14.4245 
17.0818 25.6466 14.3325 
20.181 25.8399 14.257 
18.5651 27.3012 13.0049 
18.6268 27.1983 15.7364 
23.0809 25.7844 14.3047 
21.3777 27.3766 12.969 
24.3544 27.2825 12.9791 
21.6301 27.4164 15.6575 
24.4093 27.1393 15.806 
25.5935 28.5878 14.4825 
28.5315 25.7761 14.3859 
25.9355 25.8546 14.3032 
27.2184 27.3857 12.8492 
27.2576 27.202 15.8578 
0.0477234 0.0218111 17.2683 
2.8389 2.88929 17.2876 
1.38042 1.47321 18.6261 
2.86665 2.885 19.9629 
5.86873 0.0204932 17.2392 
6.02315 2.67026 17.1416 
5.69188 0.00159222 20.0052 
4.45025 1.5287 18.5529 
5.86179 2.92144 19.9969 
7.32718 1.44765 18.617 
8.70695 2.8313 17.2499 
11.6699 2.8772 17.0014 
8.64095 0.177815 20.0072 
8.5711 2.98834 20.1408 
9.95881 1.64297 18.6825 
11.2815 2.85043 20.2183 
14.3201 2.44668 17.187 
12.7482 1.48053 18.802 
14.2054 2.8018 20.1423 
15.7724 1.18967 18.684 
16.956 2.68261 17.3618 
20.1605 2.92409 17.316 
20.1355 0.227576 19.9654 
17.173 2.87015 20.0053 
18.7271 1.56474 18.4917 
20.1804 2.78927 20.0759 
20.1848 0.087664 17.2002 
23.1366 0.0415532 17.0633 
23.0847 2.87217 17.1421 
22.9404 0.218588 20.0111 
21.6529 1.59624 18.4924 
22.8169 2.80832 20.0457 
24.3501 1.53082 18.6894 
28.6794 2.93849 17.2405 
28.4947 2.67391 19.9369 
25.7711 0.0562172 17.0593 
25.823 2.87431 17.1852 
25.707 3.13609 20.0204 
27.1511 1.41828 18.474 
2.87483 5.74966 17.3208 
0.113406 5.66652 20.0159 
1.50687 4.42871 18.5329 
2.87405 5.65238 20.0896 