ITEM: TIMESTEP
42
ITEM: NUMBER OF ATOMS
18
ITEM: BOX BOUNDS pp pp pp
0.0000000000000000e+00 2.8712000000000000e+01
0.0000000000000000e+00 2.8712000000000000e+01
0.0000000000000000e+00 2.8712000000000000e+01
ITEM: ATOMS x y z 
15.3895 15.6409 15.6408 
17.2272 14.4067 14.4066 
19.0647 15.641 15.6409 
15.8049 18.6257 15.8283 
17.2273 17.2224 14.2526 
18.6496 18.6257 15.8283 
15.8047 15.8282 18.6259 
17.2271 14.2527 17.2224 
18.6495 15.8282 18.6259 
14.3931 17.227 17.2271 
15.3896 18.813 18.8132 
17.2271 17.9759 17.9763 
20.0613 17.227 17.2271 
17.2273 20.2012 17.2317 
17.2271 17.2315 20.2016 
17.2272 20.0472 20.0475 
19.0648 18.8131 18.8133 
17.2272 16.478 16.4779 
ITEM: TIMESTEP
42
ITEM: NUMBER OF ATOMS
18
ITEM: BOX BOUNDS pp pp pp
0.0000000000000000e+00 2.8712000000000000e+01
0.0000000000000000e+00 2.8712000000000000e+01
0.0000000000000000e+00 2.8712000000000000e+01
ITEM: ATOMS x y z 
15.3895 15.6409 15.6408 
17.2272 14.4067 14.4066 
19.0647 15.641 15.6409 
15.8049 18.6257 15.8283 
17.2273 17.2224 14.2526 
18.6496 18.6257 15.8283 
15.8047 15.8282 18.6259 
17.2271 14.2527 17.2224 
18.6495 15.8282 18.6259 
14.3931 17.227 17.2271 
15.3896 18.813 18.8132 
17.2271 17.9759 17.9763 
20.0613 17.227 17.2271 
17.2273 20.2012 17.2317 
17.2271 17.2315 20.2016 
17.2272 20.0472 20.0475 
19.0648 18.8131 18.8133 
17.2272 16.478 16.4779 
ITEM: TIMESTEP
1041
ITEM: NUMBER OF ATOMS
18
ITEM: BOX BOUNDS pp pp pp
0.0000000000000000e+00 2.8712000000000000e+01
0.0000000000000000e+00 2.8712000000000000e+01
0.0000000000000000e+00 2.8712000000000000e+01
ITEM: ATOMS x y z 
15.3896 15.6409 15.6409 
17.2272 14.4067 14.4066 
19.0648 15.6409 15.6409 
15.8049 18.6257 15.8282 
17.2272 17.2223 14.2526 
18.6496 18.6257 15.8282 
15.8048 15.8282 18.626 
17.2272 14.2527 17.2225 
18.6496 15.8282 18.6259 
14.3931 17.227 17.2271 
15.3896 18.813 18.8132 
17.2272 17.976 17.9764 
20.0613 17.2269 17.2271 
17.2272 20.2012 17.2317 
17.2272 17.2316 20.2016 
17.2272 20.0472 20.0475 
19.0647 18.813 18.8132 
17.2272 16.4779 16.4778 
ITEM: TIMESTEP
2043
ITEM: NUMBER OF ATOMS
18
ITEM: BOX BOUNDS pp pp pp
0.0000000000000000e+00 2.8712000000000000e+01
0.0000000000000000e+00 2.8712000000000000e+01
0.0000000000000000e+00 2.8712000000000000e+01
ITEM: ATOMS x y z 
15.3895 15.6408 15.6409 
17.2272 14.4067 14.4066 
19.0648 15.6408 15.641 
15.8048 18.6257 15.8282 
17.2272 17.2223 14.2525 
18.6495 18.6256 15.8283 
15.8047 15.8282 18.6259 
17.2271 14.2527 17.2224 
18.6495 15.8282 18.6259 
14.3931 17.227 17.227 
15.3896 18.813 18.8132 
17.2272 16.4782 16.4779 
17.2271 17.9757 17.9763 
20.0612 17.2269 17.2271 
17.2272 20.2012 17.2317 
17.2271 17.2315 20.2016 
17.2271 20.0472 20.0475 
19.0647 18.813 18.8132 
ITEM: TIMESTEP
3036
ITEM: NUMBER OF ATOMS
18
ITEM: BOX BOUNDS pp pp pp
0.0000000000000000e+00 2.8712000000000000e+01
0.0000000000000000e+00 2.8712000000000000e+01
0.0000000000000000e+00 2.8712000000000000e+01
ITEM: ATOMS x y z 
15.3896 15.6409 15.6411 
17.2272 14.4067 14.4068 
19.0648 15.6408 15.641 
15.8048 18.6257 15.8283 
17.2271 17.2223 14.2528 
18.6495 18.6257 15.8283 
15.8049 15.8282 18.6259 
17.2273 14.2526 17.2225 
18.6496 15.8283 18.6259 
14.393 17.227 17.2272 
15.3897 18.8131 18.8131 
17.2271 16.4779 16.4781 
17.2271 17.9762 17.9763 
20.0613 17.227 17.2271 
17.2271 20.2014 17.2317 
17.2272 17.2317 20.2015 
17.2272 20.0474 20.0473 
19.0647 18.8131 18.8132 
ITEM: TIMESTEP
4041
ITEM: NUMBER OF ATOMS
18
ITEM: BOX BOUNDS pp pp pp
0.0000000000000000e+00 2.8712000000000000e+01
0.0000000000000000e+00 2.8712000000000000e+01
0.0000000000000000e+00 2.8712000000000000e+01
ITEM: ATOMS x y z 
15.3895 15.6408 15.6409 
17.2271 14.4067 14.4067 
19.0649 15.6409 15.6408 
15.8048 18.6258 15.8283 
17.2272 17.2225 14.2526 
18.6496 18.6259 15.8282 
15.8048 15.8283 18.6258 
17.2272 14.2527 17.2224 
18.6496 15.8283 18.6257 
14.393 17.227 17.227 
15.3896 18.8131 18.8131 
17.2271 16.478 16.4779 
17.2272 17.9761 17.976 
20.0614 17.2271 17.2269 
17.2272 20.2014 17.2316 
17.2272 17.2317 20.2013 
17.2272 20.0474 20.0472 
19.0648 18.8132 18.813 
ITEM: TIMESTEP
5048
ITEM: NUMBER OF ATOMS
18
ITEM: BOX BOUNDS pp pp pp
0.0000000000000000e+00 2.8712000000000000e+01
0.0000000000000000e+00 2.8712000000000000e+01
0.0000000000000000e+00 2.8712000000000000e+01
ITEM: ATOMS x y z 
14.2063 13.9547 14.2062 
12.9719 15.7922 12.972 
15.7875 15.7922 12.8181 
15.7924 12.958 15.7922 
12.8178 15.7921 15.7876 
15.0429 15.7922 15.0433 
17.1911 14.3698 14.3935 
18.7669 15.7922 15.7968 
14.2061 17.6298 14.2062 
15.7923 18.6264 15.7923 
17.1911 17.2146 14.3935 
14.3936 14.3698 17.191 
15.797 15.7922 18.7664 
16.5417 15.7923 16.5411 
17.3786 13.9544 17.3783 
18.6128 15.7922 18.6124 
14.3935 17.2146 17.191 
17.3785 17.6299 17.3783 
ITEM: TIMESTEP
6040
ITEM: NUMBER OF ATOMS
18
ITEM: BOX BOUNDS pp pp pp
0.0000000000000000e+00 2.8712000000000000e+01
0.0000000000000000e+00 2.8712000000000000e+01
0.0000000000000000e+00 2.8712000000000000e+01
ITEM: ATOMS x y z 
14.2062 13.9545 14.206 
12.972 15.7922 12.9718 
15.7877 15.7922 12.8178 
15.7924 12.9581 15.7922 
12.8179 15.7922 15.7875 
15.0433 15.7922 15.0432 
17.1911 14.3698 14.3934 
18.7668 15.7923 15.7968 
14.2063 17.6298 14.2061 
15.7923 18.6264 15.7922 
17.1911 17.2147 14.3934 
14.3935 14.3698 17.1909 
15.797 15.7922 18.7665 
16.5414 15.7923 16.5411 
17.3785 13.9546 17.3782 
18.6128 15.7922 18.6124 
14.3936 17.2145 17.1909 
17.3785 17.6299 17.3782 
ITEM: TIMESTEP
7040
ITEM: NUMBER OF ATOMS
18
ITEM: BOX BOUNDS pp pp pp
0.0000000000000000e+00 2.8712000000000000e+01
0.0000000000000000e+00 2.8712000000000000e+01
0.0000000000000000e+00 2.8712000000000000e+01
ITEM: ATOMS x y z 
15.8285 12.9586 15.8046 
15.6413 15.9434 15.3894 
17.2273 14.3574 14.3928 
18.8133 12.7713 15.3895 
18.6261 15.7561 15.8046 
17.2317 11.3828 17.227 
20.0475 11.5369 17.227 
14.253 14.3619 17.227 
15.8283 12.9584 18.6494 
15.6412 15.9432 19.0646 
16.4782 15.1065 17.227 
17.9762 13.608 17.227 
20.2015 14.3526 17.227 
17.2271 14.3571 20.0612 
18.8131 12.7711 19.0646 
18.6259 15.756 18.6495 
14.4071 17.1776 17.227 
17.2227 17.3317 17.227 
ITEM: TIMESTEP
8042
ITEM: NUMBER OF ATOMS
18
ITEM: BOX BOUNDS pp pp pp
0.0000000000000000e+00 2.8712000000000000e+01
0.0000000000000000e+00 2.8712000000000000e+01
0.0000000000000000e+00 2.8712000000000000e+01
ITEM: ATOMS x y z 
15.8285 12.9585 15.8047 
15.6411 15.9435 15.3893 
17.2273 14.3573 14.3929 
18.8133 12.7713 15.3895 
18.626 15.756 15.8047 
17.2318 11.3828 17.2271 
20.0475 11.5369 17.2271 
14.253 14.362 17.227 
15.8285 12.9584 18.6495 
15.6411 15.9434 19.0647 
16.4784 15.1064 17.2269 
17.9763 13.608 17.2272 
20.2016 14.3526 17.2272 
17.2272 14.3572 20.0613 
18.8132 12.7711 19.0648 
18.626 15.7559 18.6495 
14.407 17.1776 17.227 
17.2226 17.3317 17.2271 
ITEM: TIMESTEP
9041
ITEM: NUMBER OF ATOMS
18
ITEM: BOX BOUNDS pp pp pp
0.0000000000000000e+00 2.8712000000000000e+01
0.0000000000000000e+00 2.8712000000000000e+01
0.0000000000000000e+00 2.8712000000000000e+01
ITEM: ATOMS x y z 
15.8284 12.9585 15.8046 
15.6412 15.9432 15.3894 
17.2272 14.3572 14.3928 
18.8133 12.7712 15.3894 
18.6259 15.756 15.8046 
17.2318 11.3828 17.227 
20.0475 11.537 17.2271 
14.2528 14.3618 17.227 
15.8284 12.9585 18.6494 
15.641 15.9433 19.0647 
16.4781 15.1063 17.227 
17.9761 13.6081 17.2271 
20.2014 14.3527 17.2271 
17.2271 14.3572 20.0613 
18.8131 12.7713 19.0647 
18.6258 15.756 18.6495 
14.4069 17.1775 17.227 
17.2225 17.3316 17.227 
