ITEM: TIMESTEP
51
ITEM: NUMBER OF ATOMS
18
ITEM: BOX BOUNDS pp pp pp
0.0000000000000000e+00 2.9150999999999996e+01
0.0000000000000000e+00 2.9150999999999996e+01
0.0000000000000000e+00 2.9150999999999996e+01
ITEM: ATOMS x y z 
21.8664 10.2056 7.17334 
24.7192 10.2055 7.34685 
21.8605 7.33135 10.2056 
20.2624 8.33961 11.8036 
18.8281 10.2055 10.2116 
20.4358 8.75686 8.78098 
20.4358 11.6542 8.78097 
20.2623 12.0714 11.8036 
21.097 10.2054 10.969 
22.6239 10.2055 9.4422 
23.4585 8.33974 8.60769 
24.8928 10.2054 10.1996 
23.4584 12.0713 8.6076 
23.2851 8.75679 11.6302 
23.285 11.6541 11.6303 
21.8604 13.0796 10.2056 
19.0016 10.2055 13.0643 
21.8544 10.2055 13.2379 
ITEM: TIMESTEP
1049
ITEM: NUMBER OF ATOMS
18
ITEM: BOX BOUNDS pp pp pp
0.0000000000000000e+00 2.9150999999999996e+01
0.0000000000000000e+00 2.9150999999999996e+01
0.0000000000000000e+00 2.9150999999999996e+01
ITEM: ATOMS x y z 
21.9153 4.37819 7.34682 
24.7681 4.37822 7.17331 
24.7741 1.50413 10.2056 
23.1762 2.51244 8.60763 
23.3494 2.92956 11.6302 
26.1987 2.92959 8.78091 
26.372 2.51249 11.8035 
21.7417 4.3782 10.1996 
24.0106 4.37821 9.44218 
24.774 7.25233 10.2057 
23.3494 5.82687 11.6303 
23.1761 6.24399 8.60772 
25.5374 4.37827 10.969 
27.8063 4.3783 10.2115 
26.1986 5.82691 8.78099 
26.3719 6.24398 11.8036 
24.78 4.37827 13.2379 
27.6327 4.37827 13.0644 
ITEM: TIMESTEP
2053
ITEM: NUMBER OF ATOMS
18
ITEM: BOX BOUNDS pp pp pp
0.0000000000000000e+00 2.9150999999999996e+01
0.0000000000000000e+00 2.9150999999999996e+01
0.0000000000000000e+00 2.9150999999999996e+01
ITEM: ATOMS x y z 
21.8665 4.37827 7.17327 
24.7192 4.37828 7.34674 
20.4358 2.92951 8.78086 
20.2623 2.51235 11.8035 
21.8604 1.50409 10.2056 
23.4584 2.51243 8.60753 
23.285 2.92955 11.6301 
18.828 4.37816 10.2114 
20.4358 5.82694 8.78084 
20.2624 6.24412 11.8035 
23.4585 6.24415 8.60749 
21.0969 4.3783 10.9688 
21.8604 7.25247 10.2055 
22.6239 4.3782 9.44217 
23.285 5.82696 11.6301 
24.8928 4.37826 10.1995 
19.0015 4.37823 13.0642 
21.8543 4.37822 13.2377 
ITEM: TIMESTEP
3057
ITEM: NUMBER OF ATOMS
18
ITEM: BOX BOUNDS pp pp pp
0.0000000000000000e+00 2.9150999999999996e+01
0.0000000000000000e+00 2.9150999999999996e+01
0.0000000000000000e+00 2.9150999999999996e+01
ITEM: ATOMS x y z 
15.624 1.32359 7.15073 
19.3557 1.32327 7.15063 
17.4898 2.91542 5.71646 
17.49 0.0626997 5.88994 
17.4898 2.15797 7.98534 
16.0411 4.34618 7.3242 
18.9384 4.34599 7.32404 
14.6156 2.92155 8.74878 
16.0411 1.49701 10.1735 
18.9384 1.49671 10.1734 
20.3638 2.92133 8.74873 
17.4897 3.68498 9.51224 
17.4897 2.92754 11.7811 
15.6238 4.51948 10.3469 
19.3555 4.51937 10.3468 
17.4895 5.95379 8.75482 
17.4896 5.78024 11.6075 
17.49 29.0401 8.74269 
ITEM: TIMESTEP
4058
ITEM: NUMBER OF ATOMS
18
ITEM: BOX BOUNDS pp pp pp
0.0000000000000000e+00 2.9150999999999996e+01
0.0000000000000000e+00 2.9150999999999996e+01
0.0000000000000000e+00 2.9150999999999996e+01
ITEM: ATOMS x y z 
7.29821 10.0869 16.0325 
5.86763 11.6945 14.584 
8.05554 12.3559 16.0322 
10.151 10.2605 16.0325 
8.89029 11.5212 14.1667 
4.43341 15.9778 16.0328 
4.25989 13.1251 16.0328 
7.29226 13.1191 13.1584 
6.52872 13.8826 16.0329 
5.69429 14.7169 14.1668 
7.28612 16.1514 16.0326 
10.3245 13.1132 16.0325 
8.71683 14.5438 14.5838 
5.86746 11.6945 17.4813 
8.89012 11.5212 17.8984 
7.29205 13.1192 18.9067 
5.69407 14.7171 17.8984 
8.71671 14.5439 17.4812 
ITEM: TIMESTEP
5061
ITEM: NUMBER OF ATOMS
18
ITEM: BOX BOUNDS pp pp pp
0.0000000000000000e+00 2.9150999999999996e+01
0.0000000000000000e+00 2.9150999999999996e+01
0.0000000000000000e+00 2.9150999999999996e+01
ITEM: ATOMS x y z 
5.83541 14.5759 11.7018 
5.84149 11.5436 14.5758 
8.69423 11.7171 14.5757 
2.80308 14.582 14.5761 
4.23755 16.1738 12.7103 
4.41075 13.1514 16.0246 
4.4108 13.1513 13.1273 
7.43349 12.9779 12.7099 
6.59878 13.8126 14.5758 
5.07204 15.3393 14.5758 
7.26 16.0006 16.0245 
7.43335 12.978 16.4416 
7.26007 16.0005 13.1272 
4.23729 16.1741 16.4419 
8.86772 14.5699 14.5757 
2.97665 17.4347 14.5761 
5.82943 17.6082 14.576 
5.83539 14.576 17.45 
ITEM: TIMESTEP
6048
ITEM: NUMBER OF ATOMS
18
ITEM: BOX BOUNDS pp pp pp
0.0000000000000000e+00 2.9150999999999996e+01
0.0000000000000000e+00 2.9150999999999996e+01
0.0000000000000000e+00 2.9150999999999996e+01
ITEM: ATOMS x y z 
1.43281 10.2136 16.065 
0.00208541 11.6623 14.4573 
27.5613 9.79662 15.8918 
26.3003 11.6623 14.6309 
1.43266 13.1109 16.0649 
27.561 13.528 15.8917 
1.60614 9.79623 19.0877 
3.04038 11.6622 17.4956 
2.86681 11.6622 20.3484 
0.00813148 8.78813 17.4897 
0.0139868 11.6622 20.522 
0.771332 11.6622 18.2529 
28.3957 11.6623 16.7262 
27.7344 10.2135 18.9143 
26.1268 11.6623 17.4837 
1.60595 13.528 19.0875 
0.0079854 14.5363 17.4896 
27.7344 13.1108 18.9142 
ITEM: TIMESTEP
7056
ITEM: NUMBER OF ATOMS
18
ITEM: BOX BOUNDS pp pp pp
0.0000000000000000e+00 2.9150999999999996e+01
0.0000000000000000e+00 2.9150999999999996e+01
0.0000000000000000e+00 2.9150999999999996e+01
ITEM: ATOMS x y z 
2.92998 5.86714 20.4354 
4.3787 7.29789 18.8277 
5.82733 5.86715 20.4353 
2.51295 8.8897 20.2622 
4.37867 10.1506 19.0013 
6.24449 8.88971 20.262 
1.50451 7.29175 21.8601 
2.51273 5.69376 23.458 
4.37858 4.2594 21.8659 
4.37869 8.05514 21.0967 
4.37844 6.52828 22.6233 
4.37847 7.28569 24.8922 
7.25273 7.29173 21.8599 
6.2442 5.69386 23.4578 
4.37847 4.43296 24.7187 
2.92991 8.7163 23.2847 
4.37859 10.3241 21.854 
5.82723 8.71633 23.2846 
ITEM: TIMESTEP
8066
ITEM: NUMBER OF ATOMS
23
ITEM: BOX BOUNDS pp pp pp
0.0000000000000000e+00 2.9150999999999996e+01
0.0000000000000000e+00 2.9150999999999996e+01
0.0000000000000000e+00 2.9150999999999996e+01
ITEM: ATOMS x y z 
2.77935 8.61864 20.0312 
2.95785 11.6249 20.4216 
5.77712 8.83711 20.4586 
5.87752 11.7148 20.1796 
1.53394 7.36032 21.8497 
4.36889 7.19804 21.8594 
3.75114 9.55211 21.7947 
1.36775 10.1857 21.8461 
2.81304 8.63753 23.6265 
2.83524 11.6196 23.311 
5.10393 11.2151 22.2849 
7.37902 10.2108 21.8994 
5.81293 8.76867 23.3181 
6.44535 11.7356 23.9494 
7.3963 9.91161 24.8804 
4.39958 10.2055 24.7522 
8.84176 11.6771 23.3371 
4.34571 13.3346 21.817 
7.25564 13.0995 21.8964 
4.43341 13.0649 24.686 
7.43393 13.4812 24.9042 
5.84583 11.664 26.3186 
8.68315 11.6734 26.1651 
ITEM: TIMESTEP
9053
ITEM: NUMBER OF ATOMS
18
ITEM: BOX BOUNDS pp pp pp
0.0000000000000000e+00 2.9150999999999996e+01
0.0000000000000000e+00 2.9150999999999996e+01
0.0000000000000000e+00 2.9150999999999996e+01
ITEM: ATOMS x y z 
21.9145 1.46469 16.0329 
22.9228 3.06274 14.4349 
24.7886 1.47079 13.0005 
24.7886 2.22813 15.2694 
23.34 0.0401013 14.6082 
27.6628 1.46462 16.0327 
26.6544 3.06265 14.4347 
26.2373 0.0400332 14.6081 
24.7886 4.32348 13.174 
24.7886 4.49694 16.0267 
24.7887 27.5833 16.0389 
24.7887 0.701195 16.7962 
23.3399 2.88928 17.4575 
24.7885 1.45855 19.0651 
26.2373 2.88921 17.4574 
22.9227 29.0176 17.6309 
24.7886 27.7568 18.8916 
26.6545 29.0176 17.6308 
ITEM: TIMESTEP
10052
ITEM: NUMBER OF ATOMS
18
ITEM: BOX BOUNDS pp pp pp
0.0000000000000000e+00 2.9150999999999996e+01
0.0000000000000000e+00 2.9150999999999996e+01
0.0000000000000000e+00 2.9150999999999996e+01
ITEM: ATOMS x y z 
21.9297 1.46473 13.1741 
21.7561 1.46464 16.0268 
23.1905 3.3305 14.4348 
24.025 1.46473 15.2696 
24.7825 1.46464 13.0006 
27.8209 1.46451 16.0388 
26.2131 2.91326 14.6081 
26.2132 0.015924 14.6082 
24.7885 4.33872 16.0328 
23.1907 28.7498 14.4349 
24.7886 27.7414 16.0329 
23.3638 2.91324 17.4574 
24.7945 1.46454 19.065 
23.3639 0.0159369 17.4574 
25.552 1.46451 16.796 
27.6473 1.46447 18.8915 
26.3864 3.33029 17.6307 
26.3865 28.7498 17.6308 
ITEM: TIMESTEP
11085
ITEM: NUMBER OF ATOMS
18
ITEM: BOX BOUNDS pp pp pp
0.0000000000000000e+00 2.9150999999999996e+01
0.0000000000000000e+00 2.9150999999999996e+01
0.0000000000000000e+00 2.9150999999999996e+01
ITEM: ATOMS x y z 
15.9289 1.45862 16.0327 
18.9612 1.46457 13.1587 
18.1976 0.701051 16.0326 
17.5365 2.88918 14.5841 
20.5591 3.06251 14.1673 
20.3858 0.0398817 14.5841 
19.7246 2.22786 16.033 
21.9936 1.47065 16.033 
18.9673 4.49686 16.0329 
21.8201 4.32341 16.033 
16.1025 27.7569 16.0327 
17.3632 29.0176 14.1667 
18.9552 27.5833 16.0327 
18.9615 1.46476 18.9069 
17.5367 2.88927 17.4814 
20.3859 0.0399764 17.4815 
20.5596 3.06284 17.8987 
17.3635 29.0178 17.8985 
ITEM: TIMESTEP
12057
ITEM: NUMBER OF ATOMS
18
ITEM: BOX BOUNDS pp pp pp
0.0000000000000000e+00 2.9150999999999996e+01
0.0000000000000000e+00 2.9150999999999996e+01
0.0000000000000000e+00 2.9150999999999996e+01
ITEM: ATOMS x y z 
21.8751 4.37845 16.0723 
20.277 2.78034 17.0805 
19.0163 1.51949 18.9465 
20.277 2.78021 20.8121 
21.1117 3.61479 18.9467 
21.869 1.34591 18.9465 
23.2997 2.95377 17.4978 
23.2995 2.95365 20.3951 
18.8428 4.37224 18.9464 
20.4504 5.80302 17.4977 
20.4503 5.80285 20.3951 
22.6383 5.14187 18.9464 
21.881 7.4107 18.9463 
23.473 5.97646 17.0806 
23.4728 5.97618 20.8122 
24.7336 7.23716 18.9464 
24.9072 4.38434 18.9465 
21.8748 4.37819 21.8206 
ITEM: TIMESTEP
13054
ITEM: NUMBER OF ATOMS
18
ITEM: BOX BOUNDS pp pp pp
0.0000000000000000e+00 2.9150999999999996e+01
0.0000000000000000e+00 2.9150999999999996e+01
0.0000000000000000e+00 2.9150999999999996e+01
ITEM: ATOMS x y z 
21.466 1.32349 15.8918 
23.3318 2.91554 14.4573 
23.3318 0.0627696 14.6309 
25.1976 1.32354 15.8916 
21.8831 4.34611 16.0651 
24.7804 4.3461 16.065 
20.4576 2.92146 17.4898 
21.8831 1.4968 18.9144 
23.332 2.15821 16.7263 
23.3317 2.92741 20.5221 
24.7804 1.49681 18.9142 
23.3314 3.68474 18.2533 
26.2059 2.92146 17.4895 
21.4659 4.51946 19.0877 
23.3317 5.95362 17.4956 
23.3316 5.78018 20.3484 
25.1974 4.51938 19.0874 
23.3317 29.0402 17.4837 
ITEM: TIMESTEP
14062
ITEM: NUMBER OF ATOMS
18
ITEM: BOX BOUNDS pp pp pp
0.0000000000000000e+00 2.9150999999999996e+01
0.0000000000000000e+00 2.9150999999999996e+01
0.0000000000000000e+00 2.9150999999999996e+01
ITEM: ATOMS x y z 
21.4658 1.32338 15.8918 
23.3319 2.91548 14.4573 
23.3318 0.062689 14.6309 
25.1977 1.32345 15.8915 
21.8831 4.34604 16.065 
24.7804 4.34612 16.0648 
20.4576 2.92142 17.4897 
21.883 1.49682 18.9144 
23.3318 2.15816 16.7263 
23.3316 2.92747 20.5218 
23.3318 3.68494 18.253 
24.7804 1.49689 18.9142 
26.2059 2.92152 17.4895 
21.4659 4.51939 19.0876 
23.3317 5.95376 17.4954 
23.3316 5.78025 20.3482 
25.1974 4.51943 19.0873 
23.3317 29.0402 17.4837 
ITEM: TIMESTEP
15056
ITEM: NUMBER OF ATOMS
18
ITEM: BOX BOUNDS pp pp pp
0.0000000000000000e+00 2.9150999999999996e+01
0.0000000000000000e+00 2.9150999999999996e+01
0.0000000000000000e+00 2.9150999999999996e+01
ITEM: ATOMS x y z 
1.46504 27.702 7.3313 
3.06305 0.148998 8.33959 
1.47094 1.58324 10.2054 
3.06263 0.148878 12.071 
4.32367 1.40976 10.2053 
1.4589 24.6697 10.2055 
27.7571 24.8432 10.2056 
0.0401771 29.1266 11.6541 
2.22836 28.4654 10.2055 
2.88961 26.2774 8.75679 
2.88944 26.2774 11.6541 
0.0403776 29.1266 8.75681 
0.701543 26.9386 10.2054 
4.49721 27.708 10.2054 
29.0181 26.104 8.33969 
27.5836 27.6959 10.2056 
29.0176 26.1039 12.0715 
1.46473 27.702 13.0796 
ITEM: TIMESTEP
16053
ITEM: NUMBER OF ATOMS
18
ITEM: BOX BOUNDS pp pp pp
0.0000000000000000e+00 2.9150999999999996e+01
0.0000000000000000e+00 2.9150999999999996e+01
0.0000000000000000e+00 2.9150999999999996e+01
ITEM: ATOMS x y z 
5.83539 2.92157 2.961 
4.23748 1.32371 3.96935 
7.43339 4.51953 3.96931 
2.80307 2.91557 5.83505 
2.97664 0.0628529 5.83503 
7.26003 1.49691 4.38641 
4.23742 1.32364 7.70074 
5.07205 2.15831 5.83492 
7.25997 1.49687 7.2837 
6.59883 3.68487 5.83503 
8.86776 2.92748 5.83506 
4.41081 4.34622 4.38637 
4.41079 4.34616 7.2837 
7.43335 4.51942 7.70088 
5.84148 5.95386 5.83501 
8.69428 5.78023 5.83504 
5.82939 29.0402 5.8351 
5.83529 2.9215 8.70919 
ITEM: TIMESTEP
17084
ITEM: NUMBER OF ATOMS
18
ITEM: BOX BOUNDS pp pp pp
0.0000000000000000e+00 2.9150999999999996e+01
0.0000000000000000e+00 2.9150999999999996e+01
0.0000000000000000e+00 2.9150999999999996e+01
ITEM: ATOMS x y z 
1.50445 1.46455 7.29181 
2.51282 3.0625 5.69378 
2.92994 0.0399017 5.86724 
4.37872 2.22775 6.52854 
4.37853 1.47049 4.25951 
4.3786 0.700961 8.05533 
7.25278 1.46444 7.29183 
6.24453 3.06247 5.69374 
5.8273 0.0397598 5.86727 
4.37848 4.32322 4.43296 
4.37852 4.49681 7.28568 
4.3787 27.5831 7.29794 
2.92998 2.88916 8.71635 
5.82734 2.88908 8.71645 
4.37879 1.4585 10.3241 
2.51298 29.0177 8.88972 
4.37877 27.7567 10.1506 
6.24447 29.0175 8.88984 
ITEM: TIMESTEP
18082
ITEM: NUMBER OF ATOMS
18
ITEM: BOX BOUNDS pp pp pp
0.0000000000000000e+00 2.9150999999999996e+01
0.0000000000000000e+00 2.9150999999999996e+01
0.0000000000000000e+00 2.9150999999999996e+01
ITEM: ATOMS x y z 
2.92183 0.00773217 2.96084 
4.51966 1.60563 3.96919 
1.32389 27.5609 3.96928 
1.49716 1.43233 4.38623 
1.49715 1.43238 7.28354 
2.92776 3.03994 5.83478 
3.68515 0.770916 5.83486 
4.51983 1.60569 7.70067 
5.78047 2.86649 5.83477 
5.95417 0.0136994 5.83501 
29.0404 0.00171868 5.83501 
2.15831 28.3954 5.83505 
1.32391 27.5608 7.70081 
2.91581 26.1265 5.83513 
0.0629994 26.3 5.83515 
4.34643 27.7341 7.28364 
4.34632 27.7341 4.38638 
2.92186 0.00778246 8.70899 
ITEM: TIMESTEP
19051
ITEM: NUMBER OF ATOMS
18
ITEM: BOX BOUNDS pp pp pp
0.0000000000000000e+00 2.9150999999999996e+01
0.0000000000000000e+00 2.9150999999999996e+01
0.0000000000000000e+00 2.9150999999999996e+01
ITEM: ATOMS x y z 
27.561 24.6472 3.96912 
0.00795608 26.2451 2.96087 
1.60594 27.8431 3.96926 
0.0140344 0.12648 5.83516 
1.43258 24.8206 4.38632 
0.00192556 23.213 5.83484 
1.43258 24.8206 7.28362 
26.3002 23.3865 5.83482 
27.561 24.6474 7.70065 
2.86677 29.104 5.83517 
0.771362 27.0085 5.83523 
1.60599 27.8433 7.70082 
3.04033 26.2513 5.83511 
28.3955 25.4819 5.83484 
27.7343 27.6698 4.38632 
26.1266 26.2392 5.83487 
27.7344 27.6699 7.28366 
0.00797729 26.2453 8.70907 
ITEM: TIMESTEP
20054
ITEM: NUMBER OF ATOMS
18
ITEM: BOX BOUNDS pp pp pp
0.0000000000000000e+00 2.9150999999999996e+01
0.0000000000000000e+00 2.9150999999999996e+01
0.0000000000000000e+00 2.9150999999999996e+01
ITEM: ATOMS x y z 
3.06291 23.1904 2.51235 
1.465 24.7883 1.50399 
0.0403876 23.3637 2.92949 
2.88962 26.2129 2.92943 
29.018 26.3862 2.51239 
2.22829 24.0248 4.37804 
1.47095 21.7559 4.37812 
3.06281 23.1903 6.24385 
0.0403123 23.3637 5.82678 
1.4649 24.7883 7.25217 
4.49721 24.7823 4.37802 
4.32373 21.9295 4.37808 
27.5838 24.7943 4.37822 
1.45892 27.8207 4.37817 
2.88959 26.2129 5.82679 
0.701802 25.5517 4.37837 
29.018 26.3862 6.24384 
27.7572 27.6471 4.37822 
ITEM: TIMESTEP
21053
ITEM: NUMBER OF ATOMS
18
ITEM: BOX BOUNDS pp pp pp
0.0000000000000000e+00 2.9150999999999996e+01
0.0000000000000000e+00 2.9150999999999996e+01
0.0000000000000000e+00 2.9150999999999996e+01
ITEM: ATOMS x y z 
0.0080793 20.2992 2.91524 
0.00806702 20.4727 0.0625145 
1.87396 21.7336 1.32325 
2.88225 23.3315 2.92125 
1.45677 24.7561 1.49667 
0.00802872 22.5682 2.15798 
0.00807025 24.0948 3.68471 
27.2932 21.7335 1.32337 
26.285 23.3314 2.92131 
27.7104 24.756 1.49668 
0.00815228 26.3638 2.92733 
1.87385 24.9295 4.51916 
1.45673 21.9069 4.34588 
0.00800337 23.3376 5.9536 
27.7104 21.9067 4.34593 
27.2933 24.9296 4.51929 
0.00807248 26.1903 5.78009 
0.0080498 23.3254 29.04 
ITEM: TIMESTEP
22064
ITEM: NUMBER OF ATOMS
18
ITEM: BOX BOUNDS pp pp pp
0.0000000000000000e+00 2.9150999999999996e+01
0.0000000000000000e+00 2.9150999999999996e+01
0.0000000000000000e+00 2.9150999999999996e+01
ITEM: ATOMS x y z 
0.00812875 20.2993 2.91536 
0.0081016 20.4728 0.0626796 
1.87392 21.7335 1.32344 
2.88222 23.3314 2.92131 
0.00809089 22.5682 2.1579 
0.00776865 24.0949 3.68489 
1.45669 24.7561 1.49676 
27.2935 21.7336 1.32348 
26.2849 23.3315 2.92145 
27.7103 24.7562 1.49687 
0.00785929 26.3638 2.92746 
1.87381 24.9294 4.51929 
1.45668 21.9068 4.34598 
0.00787774 23.3375 5.95374 
27.7104 21.9069 4.34609 
27.2928 24.9297 4.51963 
0.00783986 26.1903 5.78023 
0.0081225 23.3255 29.0401 
ITEM: TIMESTEP
23050
ITEM: NUMBER OF ATOMS
18
ITEM: BOX BOUNDS pp pp pp
0.0000000000000000e+00 2.9150999999999996e+01
0.0000000000000000e+00 2.9150999999999996e+01
0.0000000000000000e+00 2.9150999999999996e+01
ITEM: ATOMS x y z 
29.1508 20.4501 2.95363 
26.2535 20.4501 2.9535 
0.41695 23.4727 2.78032 
27.7021 21.8808 1.34586 
25.8365 23.4726 2.7801 
27.7022 24.7335 1.51936 
27.7022 22.6382 3.61472 
0.416986 20.2767 5.97631 
27.7022 18.8424 4.38431 
27.7022 19.0158 7.237 
25.8363 20.2766 5.97617 
1.42529 21.8748 4.37822 
24.8281 21.8747 4.37807 
29.1509 23.2993 5.80289 
27.7023 21.1114 5.1415 
27.7022 21.8686 7.41051 
26.2536 23.2993 5.80272 
27.7023 24.907 4.37207 
ITEM: TIMESTEP
24062
ITEM: NUMBER OF ATOMS
18
ITEM: BOX BOUNDS pp pp pp
0.0000000000000000e+00 2.9150999999999996e+01
0.0000000000000000e+00 2.9150999999999996e+01
0.0000000000000000e+00 2.9150999999999996e+01
ITEM: ATOMS x y z 
1.51962 16.0471 7.3467 
4.37227 16.0473 7.1732 
2.78029 14.1813 8.6075 
1.34615 16.047 10.1994 
2.9538 14.5985 11.6301 
3.61512 16.0469 9.44216 
4.37839 13.1731 10.2056 
5.1418 16.0477 10.9691 
5.80296 14.5987 8.78099 
7.41071 16.0475 10.2118 
5.97635 14.1817 11.8036 
2.78057 17.9131 8.60757 
2.95398 17.4959 11.6302 
4.37861 18.9214 10.2057 
5.80312 17.496 8.78108 
5.97658 17.913 11.8036 
4.38462 16.0474 13.238 
7.23726 16.0475 13.0645 
ITEM: TIMESTEP
25082
ITEM: NUMBER OF ATOMS
18
ITEM: BOX BOUNDS pp pp pp
0.0000000000000000e+00 2.9150999999999996e+01
0.0000000000000000e+00 2.9150999999999996e+01
0.0000000000000000e+00 2.9150999999999996e+01
ITEM: ATOMS x y z 
1.60597 12.9926 6.88283 
1.43258 16.0153 7.2999 
0.00801803 14.5906 5.87446 
27.7344 13.1661 7.30007 
27.5611 16.1887 6.88289 
2.8667 11.7319 8.74866 
0.013952 11.5585 8.74879 
0.771453 13.8275 8.74864 
1.60587 12.9927 10.6145 
1.43255 16.0153 10.1973 
3.04039 14.5846 8.7485 
0.00793359 14.5907 11.6228 
28.3954 15.354 8.74874 
27.7343 13.1661 10.1974 
26.1266 14.5967 8.74878 
27.561 16.1886 10.6143 
0.00193249 17.6229 8.74865 
26.3002 17.4495 8.74867 
ITEM: TIMESTEP
26079
ITEM: NUMBER OF ATOMS
18
ITEM: BOX BOUNDS pp pp pp
0.0000000000000000e+00 2.9150999999999996e+01
0.0000000000000000e+00 2.9150999999999996e+01
0.0000000000000000e+00 2.9150999999999996e+01
ITEM: ATOMS x y z 
23.3639 14.5988 11.6946 
24.7945 16.0475 10.0869 
27.6473 16.0476 10.2605 
25.5518 16.0476 12.3557 
26.3865 14.1818 11.5213 
23.3639 17.4962 11.6946 
26.3866 17.9133 11.5212 
21.7563 16.0475 13.1252 
21.9298 16.0475 15.978 
23.1906 14.1816 14.7171 
24.0252 16.0475 13.8828 
24.7826 16.0475 16.1516 
24.7886 13.1734 13.1192 
27.8207 16.0476 13.1132 
26.2132 14.5989 14.5439 
23.1906 17.9134 14.7171 
24.7886 18.9217 13.1192 
26.2132 17.4962 14.5439 
ITEM: TIMESTEP
27049
ITEM: NUMBER OF ATOMS
18
ITEM: BOX BOUNDS pp pp pp
0.0000000000000000e+00 2.9150999999999996e+01
0.0000000000000000e+00 2.9150999999999996e+01
0.0000000000000000e+00 2.9150999999999996e+01
ITEM: ATOMS x y z 
21.8748 18.9609 7.33134 
21.8809 15.9286 10.2055 
24.7337 16.1022 10.2055 
18.8427 18.9669 10.2054 
20.4502 17.5363 8.75681 
20.2769 20.5589 8.33968 
20.2772 20.5588 12.0712 
20.4504 17.5362 11.6542 
23.4729 17.3629 8.33958 
21.1116 19.7244 10.2053 
22.6382 18.1975 10.2055 
23.2995 20.3856 8.75678 
23.2997 20.3855 11.6541 
24.9072 18.9549 10.2054 
23.473 17.3629 12.0714 
19.0163 21.8197 10.2055 
21.8691 21.9932 10.2054 
21.8751 18.9609 13.0797 
ITEM: TIMESTEP
28055
ITEM: NUMBER OF ATOMS
18
ITEM: BOX BOUNDS pp pp pp
0.0000000000000000e+00 2.9150999999999996e+01
0.0000000000000000e+00 2.9150999999999996e+01
0.0000000000000000e+00 2.9150999999999996e+01
ITEM: ATOMS x y z 
19.016 19.0159 7.2919 
20.2769 20.2769 5.42627 
21.8686 18.8424 7.29195 
23.2994 20.4502 5.84327 
18.8425 21.8685 7.29185 
20.4503 23.2993 5.84328 
21.8748 21.8748 4.41782 
22.6383 22.638 7.2921 
23.4728 23.4728 5.42622 
24.7338 24.7336 7.29204 
21.1114 21.1114 7.29186 
24.9073 21.8809 7.29203 
21.8811 24.907 7.29196 
20.277 20.2767 9.15754 
23.2995 20.4501 8.74063 
20.4504 23.2993 8.7406 
23.473 23.4728 9.15783 
21.875 21.8747 10.166 
ITEM: TIMESTEP
29051
ITEM: NUMBER OF ATOMS
18
ITEM: BOX BOUNDS pp pp pp
0.0000000000000000e+00 2.9150999999999996e+01
0.0000000000000000e+00 2.9150999999999996e+01
0.0000000000000000e+00 2.9150999999999996e+01
ITEM: ATOMS x y z 
15.9064 15.9064 1.05563 
14.6456 14.6455 2.92136 
18.929 16.0797 1.47278 
17.4983 14.472 2.92139 
16.0796 18.9289 1.47269 
14.4721 17.4982 2.9213 
19.1023 19.1023 1.05564 
16.741 16.7409 2.92135 
17.5104 20.5367 2.92137 
20.5366 17.5104 2.92142 
17.5043 17.5043 0.0472966 
20.3631 20.3631 2.92138 
18.2678 18.2679 2.92137 
15.9064 15.9062 4.7872 
18.929 16.0797 4.37005 
16.0798 18.9289 4.37001 
17.5044 17.5042 5.79549 
19.1023 19.1022 4.78703 
ITEM: TIMESTEP
30052
ITEM: NUMBER OF ATOMS
18
ITEM: BOX BOUNDS pp pp pp
0.0000000000000000e+00 2.9150999999999996e+01
0.0000000000000000e+00 2.9150999999999996e+01
0.0000000000000000e+00 2.9150999999999996e+01
ITEM: ATOMS x y z 
10.2264 10.2201 1.34602 
8.79569 8.77152 2.95363 
11.8183 8.35444 2.78029 
8.79568 11.6688 2.95369 
10.9837 10.2202 3.61497 
11.8183 12.0857 2.78027 
13.0791 10.2202 1.51947 
10.2203 7.34618 4.37832 
7.18795 10.2201 4.38441 
7.36139 10.22 7.23718 
8.62225 8.35439 5.97646 
9.45689 10.2199 5.14163 
11.6449 8.77147 5.80298 
8.62224 12.0859 5.9764 
10.2142 10.22 7.41064 
11.6449 11.6687 5.80292 
13.2526 10.2202 4.37221 
10.2203 13.0941 4.37826 
ITEM: TIMESTEP
31049
ITEM: NUMBER OF ATOMS
23
ITEM: BOX BOUNDS pp pp pp
0.0000000000000000e+00 2.9150999999999996e+01
0.0000000000000000e+00 2.9150999999999996e+01
0.0000000000000000e+00 2.9150999999999996e+01
ITEM: ATOMS x y z 
4.27894 4.28777 6.99099 
4.40629 7.28476 7.29581 
7.25954 4.31011 7.29742 
7.31326 7.32007 4.29187 
5.84825 5.87307 5.86063 
6.83943 6.57578 8.32016 
7.39927 7.91717 6.66157 
8.71317 5.90625 5.91353 
7.3212 10.1558 4.44611 
5.56446 8.8644 5.73722 
7.32135 10.3135 7.27097 
9.13229 8.91 5.69855 
2.99807 3.00491 8.76497 
5.8245 2.83927 8.76515 
2.83559 5.84074 8.75624 
4.25096 4.24602 10.5868 
7.25769 4.42908 10.1842 
4.46977 7.24792 10.1549 
5.19313 5.22287 8.82631 
7.34394 7.34245 10.4244 
8.96698 5.83001 8.77196 
5.85002 8.85139 8.71058 
8.74204 8.73013 8.70488 
ITEM: TIMESTEP
32053
ITEM: NUMBER OF ATOMS
18
ITEM: BOX BOUNDS pp pp pp
0.0000000000000000e+00 2.9150999999999996e+01
0.0000000000000000e+00 2.9150999999999996e+01
0.0000000000000000e+00 2.9150999999999996e+01
ITEM: ATOMS x y z 
5.84976 2.991 5.88996 
3.98388 4.25185 7.15067 
7.71554 4.25169 7.15078 
4.40105 7.27447 7.32413 
5.84973 5.84376 5.71643 
7.29836 7.27438 7.32415 
5.84973 5.08643 7.98541 
5.84977 2.81742 8.74268 
2.97558 5.84982 8.74869 
3.9839 7.44779 10.3467 
5.84978 6.61323 9.51216 
4.40105 4.42516 10.1733 
7.29836 4.42507 10.1734 
7.7154 7.44761 10.3467 
5.84974 5.85571 11.781 
8.7238 5.8497 8.74878 
5.84966 8.88212 8.7548 
5.84971 8.70852 11.6075 
ITEM: TIMESTEP
33053
ITEM: NUMBER OF ATOMS
18
ITEM: BOX BOUNDS pp pp pp
0.0000000000000000e+00 2.9150999999999996e+01
0.0000000000000000e+00 2.9150999999999996e+01
0.0000000000000000e+00 2.9150999999999996e+01
ITEM: ATOMS x y z 
2.9442 2.9684 11.6945 
5.84161 2.96833 11.6946 
2.52694 5.99105 11.521 
6.25853 5.99077 11.5212 
4.39277 4.39909 10.0868 
4.39275 7.25171 10.2603 
4.3927 5.15636 12.3556 
2.52715 2.79497 14.7172 
4.3932 1.5341 15.978 
4.39316 1.36066 13.1253 
6.25908 2.79467 14.7174 
4.39309 3.62956 13.8827 
1.51867 4.39301 13.1191 
2.94422 5.81755 14.5437 
4.3931 4.38676 16.1516 
7.26715 4.39285 13.1192 
4.39279 7.42512 13.113 
5.8416 5.81742 14.5438 
ITEM: TIMESTEP
34053
ITEM: NUMBER OF ATOMS
18
ITEM: BOX BOUNDS pp pp pp
0.0000000000000000e+00 2.9150999999999996e+01
0.0000000000000000e+00 2.9150999999999996e+01
0.0000000000000000e+00 2.9150999999999996e+01
ITEM: ATOMS x y z 
2.94412 8.79571 11.6945 
2.52705 11.8185 11.521 
4.39281 10.2263 10.0869 
4.39306 10.9835 12.3558 
5.84156 8.79547 11.6947 
6.2588 11.818 11.5213 
4.39289 13.079 10.2604 
4.39298 7.36134 15.978 
4.39287 7.18784 13.1253 
1.51871 10.2204 13.1191 
2.52714 8.6224 14.717 
2.94433 11.6448 14.5437 
6.25875 8.622 14.7174 
4.39307 10.214 16.1515 
7.26715 10.22 13.1193 
4.39284 9.45658 13.8827 
5.8417 11.6446 14.5438 
4.39297 13.2524 13.1131 
ITEM: TIMESTEP
35063
ITEM: NUMBER OF ATOMS
18
ITEM: BOX BOUNDS pp pp pp
0.0000000000000000e+00 2.9150999999999996e+01
0.0000000000000000e+00 2.9150999999999996e+01
0.0000000000000000e+00 2.9150999999999996e+01
ITEM: ATOMS x y z 
11.6713 11.5581 20.4033 
8.81851 11.7317 20.4032 
10.0792 12.9925 18.5374 
8.64498 14.5845 20.4032 
10.914 13.8271 20.4031 
10.2526 16.0151 18.9546 
11.6772 14.5905 17.5292 
12.4407 15.354 20.4035 
13.1018 13.1659 18.9546 
13.2752 16.1885 18.5375 
14.7095 14.5965 20.4033 
11.6833 17.6228 20.4033 
14.536 17.4493 20.4033 
10.0793 12.9924 22.2692 
10.2527 16.0151 21.8519 
11.6773 14.5905 23.2774 
13.1019 13.1658 21.8519 
13.2752 16.1884 22.269 
ITEM: TIMESTEP
36066
ITEM: NUMBER OF ATOMS
18
ITEM: BOX BOUNDS pp pp pp
0.0000000000000000e+00 2.9150999999999996e+01
0.0000000000000000e+00 2.9150999999999996e+01
0.0000000000000000e+00 2.9150999999999996e+01
ITEM: ATOMS x y z 
8.81859 17.5043 11.7173 
11.6713 17.5042 11.5437 
10.0794 15.6382 12.9781 
10.2526 16.0556 16.0007 
11.6774 14.6301 14.5762 
13.102 16.0555 13.1515 
13.2753 15.6385 16.1741 
10.0792 19.3702 12.9781 
8.64508 17.5043 14.5701 
10.2526 18.9529 16.0007 
10.9141 17.5044 13.8125 
11.6773 20.3783 14.5761 
12.4404 17.504 15.3397 
13.1019 18.9529 13.1515 
14.7094 17.5041 14.5822 
13.2753 19.3698 16.1741 
11.6833 17.5042 17.6086 
14.536 17.5041 17.4349 
ITEM: TIMESTEP
37052
ITEM: NUMBER OF ATOMS
18
ITEM: BOX BOUNDS pp pp pp
0.0000000000000000e+00 2.9150999999999996e+01
0.0000000000000000e+00 2.9150999999999996e+01
0.0000000000000000e+00 2.9150999999999996e+01
ITEM: ATOMS x y z 
4.25176 10.0789 6.88275 
7.27433 10.2521 7.29989 
5.84967 11.6768 5.87439 
4.42505 13.1014 7.29984 
7.4476 13.2747 6.88272 
2.99097 8.81803 8.74869 
2.81739 11.6708 8.74859 
4.25177 10.0788 10.6145 
5.08628 10.9133 8.74858 
5.84382 8.64446 8.74865 
7.27435 10.2521 10.1972 
5.84972 11.6767 11.6227 
6.6131 12.4402 8.74852 
8.88196 11.6827 8.74856 
4.42506 13.1014 10.1972 
5.85568 14.709 8.74845 
7.44754 13.2746 10.6142 
8.70842 14.5355 8.74846 
ITEM: TIMESTEP
38051
ITEM: NUMBER OF ATOMS
18
ITEM: BOX BOUNDS pp pp pp
0.0000000000000000e+00 2.9150999999999996e+01
0.0000000000000000e+00 2.9150999999999996e+01
0.0000000000000000e+00 2.9150999999999996e+01
ITEM: ATOMS x y z 
4.39306 7.30633 7.33137 
2.96846 5.8817 8.75683 
1.3607 7.31253 10.2056 
2.96837 5.88182 11.6542 
3.62954 8.0698 10.2056 
5.99112 5.70824 8.33952 
4.39913 4.27402 10.2054 
7.25185 4.44758 10.2054 
5.15638 6.54297 10.2055 
7.42533 7.3003 10.2055 
5.99099 5.70843 12.0713 
2.79511 8.90428 8.3399 
2.79494 8.90447 12.0714 
1.53422 10.1652 10.2057 
5.81759 8.731 11.6542 
4.3869 10.3387 10.2056 
5.81765 8.73095 8.75686 
4.39297 7.30645 13.0797 
ITEM: TIMESTEP
39053
ITEM: NUMBER OF ATOMS
18
ITEM: BOX BOUNDS pp pp pp
0.0000000000000000e+00 2.9150999999999996e+01
0.0000000000000000e+00 2.9150999999999996e+01
0.0000000000000000e+00 2.9150999999999996e+01
ITEM: ATOMS x y z 
2.94219 11.6768 2.80285 
5.79504 11.6768 2.97634 
1.51159 10.2281 4.41046 
2.9363 8.80258 5.83502 
2.17272 11.677 6.59857 
3.69957 11.6767 5.07182 
1.33838 9.81094 7.43292 
4.53428 9.811 4.23712 
4.36091 10.2281 7.25967 
5.96859 11.6768 5.82909 
29.0549 11.6769 5.84111 
1.51151 13.1254 4.41052 
1.33826 13.5425 7.43304 
2.9362 14.5508 5.83506 
4.53426 13.5427 4.23698 
4.36086 13.1254 7.25969 
2.93025 11.6768 8.86735 
0.0774621 11.6769 8.69383 
ITEM: TIMESTEP
40051
ITEM: NUMBER OF ATOMS
18
ITEM: BOX BOUNDS pp pp pp
0.0000000000000000e+00 2.9150999999999996e+01
0.0000000000000000e+00 2.9150999999999996e+01
0.0000000000000000e+00 2.9150999999999996e+01
ITEM: ATOMS x y z 
1.47933 16.0471 1.50402 
2.90405 14.6226 2.92958 
29.0324 14.4493 2.51238 
3.07722 17.645 2.51242 
0.0547292 17.4718 2.92949 
0.716071 15.2838 4.37814 
1.47339 13.0149 4.3783 
1.47943 16.0473 7.25233 
2.90401 14.6226 5.82696 
4.51166 16.0533 4.37821 
27.5981 16.0412 4.37816 
29.0323 14.4492 6.2441 
27.7716 13.1885 4.37829 
1.48539 19.0795 4.37803 
2.24277 16.8107 4.37821 
3.07743 17.6451 6.24388 
0.054803 17.4718 5.82681 
4.33818 18.906 4.37816 
ITEM: TIMESTEP
41050
ITEM: NUMBER OF ATOMS
18
ITEM: BOX BOUNDS pp pp pp
0.0000000000000000e+00 2.9150999999999996e+01
0.0000000000000000e+00 2.9150999999999996e+01
0.0000000000000000e+00 2.9150999999999996e+01
ITEM: ATOMS x y z 
4.3989 15.9284 7.29184 
7.25167 16.102 7.29186 
2.96816 17.5363 5.84317 
1.36062 18.9669 7.2918 
2.79485 20.559 5.42604 
3.62947 19.7244 7.29189 
5.15613 18.1974 7.29189 
4.39279 18.961 4.41772 
5.99083 17.3629 5.42592 
7.42513 18.9549 7.29185 
5.81749 20.3856 5.84318 
1.53419 21.8197 7.29183 
4.38692 21.9932 7.29183 
2.96826 17.5362 8.74046 
2.79504 20.5587 9.15743 
4.39294 18.9608 10.1659 
5.81757 20.3855 8.74046 
5.99102 17.3627 9.15776 
ITEM: TIMESTEP
42049
ITEM: NUMBER OF ATOMS
18
ITEM: BOX BOUNDS pp pp pp
0.0000000000000000e+00 2.9150999999999996e+01
0.0000000000000000e+00 2.9150999999999996e+01
0.0000000000000000e+00 2.9150999999999996e+01
ITEM: ATOMS x y z 
0.0305694 20.45 2.95351 
2.92796 20.4499 2.95354 
1.47922 21.8807 1.34581 
3.34516 23.4725 2.78011 
1.47933 24.7334 1.51936 
1.47931 22.638 3.61479 
28.7644 23.4727 2.78006 
1.47936 18.8422 4.38428 
1.47929 19.0158 7.23694 
3.34506 20.2765 5.97613 
28.7646 20.2767 5.97602 
1.47935 24.9069 4.3721 
1.47921 21.1111 5.14153 
1.47931 21.8685 7.41038 
2.928 23.2991 5.80276 
0.0306441 23.2992 5.80274 
4.35346 21.8745 4.3782 
27.7561 21.8746 4.37811 
ITEM: TIMESTEP
43053
ITEM: NUMBER OF ATOMS
18
ITEM: BOX BOUNDS pp pp pp
0.0000000000000000e+00 2.9150999999999996e+01
0.0000000000000000e+00 2.9150999999999996e+01
0.0000000000000000e+00 2.9150999999999996e+01
ITEM: ATOMS x y z 
0.022465 20.4574 2.9214 
1.44703 21.8829 1.4968 
3.05495 23.3316 2.9275 
1.44723 24.7802 1.49684 
0.786194 23.3316 3.68476 
28.41 23.3316 2.15813 
27.5754 21.4657 1.32331 
26.1412 23.3314 2.91536 
26.3147 23.3314 0.0626454 
0.022715 26.2056 2.92152 
27.5757 25.1974 1.32344 
1.62043 21.4657 4.51941 
2.88134 23.3315 5.7803 
0.0285919 23.3315 5.95366 
27.749 24.7801 4.34611 
27.7489 21.8828 4.34598 