LAMMPS (7 Aug 2019)
Total wall time: 0:00:02
