LAMMPS (7 Aug 2019)
# -var l 2.8712 -var t 7100.0
#------------------------------------------------
shell mkdir coords
#------------------------------------------------
variable i loop 10000 #число рестартов
variable time_step equal 1000*$i
variable time_step equal 1000*1
#------------------------------------------------
read_restart ./restarts/$t/${time_step}
read_restart ./restarts/700/${time_step}
read_restart ./restarts/700/1000
  restoring atom style atomic from restart
  orthogonal box = (0 0 0) to (28.712 28.712 28.712)
  1 by 1 by 1 MPI processor grid
  pair style eam/fs stores no restart info
  2001 atoms
  read_restart CPU = 0.00831604 secs
pair_style      eam/fs
pair_coeff      * * ../Fe_mm.eam.fs Fe
Reading potential file ../Fe_mm.eam.fs with DATE: 2007-06-11
#dump		before_min all custom 1 dump/$ibefore_min.dump x y z
min_style cg
minimize 1e-9 1e-9 5000 5000
WARNING: Using 'neigh_modify every 1 delay 0 check yes' setting during minimization (../min.cpp:168)
Unused restart file peratom fix info:
  fix style: STORE, fix ID: msd_COMPUTE_STORE
Neighbor list info ...
  update every 1 steps, delay 0 steps, check yes
  max neighbors/atom: 2000, page size: 100000
  master list distance cutoff = 7.3
  ghost atom cutoff = 7.3
  binsize = 3.65, bins = 8 8 8
  1 neighbor lists, perpetual/occasional/extra = 1 0 0
  (1) pair eam/fs, perpetual
      attributes: half, newton on
      pair build: half/bin/atomonly/newton
      stencil: half/bin/3d/newton
      bin: standard
Per MPI rank memory allocation (min/avg/max) = 4.712 | 4.712 | 4.712 Mbytes
Step Temp E_pair E_mol TotEng Press 
    1000    700.45537   -8061.2108            0   -7880.1288   -983.88423 
    1042    700.45537   -8242.1437            0   -8061.0618   -19961.391 
Loop time of 0.3146 on 1 procs for 42 steps with 2001 atoms

99.3% CPU use with 1 MPI tasks x no OpenMP threads

Minimization stats:
  Stopping criterion = energy tolerance
  Energy initial, next-to-last, final = 
        -8061.21076218     -8242.14370159     -8242.14370736
  Force two-norm initial, final = 55.3194 0.010946
  Force max component initial, final = 3.13522 0.00266365
  Final line search alpha, max atom move = 1 0.00266365
  Iterations, force evaluations = 42 78

MPI task timing breakdown:
Section |  min time  |  avg time  |  max time  |%varavg| %total
---------------------------------------------------------------
Pair    | 0.30919    | 0.30919    | 0.30919    |   0.0 | 98.28
Neigh   | 0          | 0          | 0          |   0.0 |  0.00
Comm    | 0.0018544  | 0.0018544  | 0.0018544  |   0.0 |  0.59
Output  | 0          | 0          | 0          |   0.0 |  0.00
Modify  | 0          | 0          | 0          |   0.0 |  0.00
Other   |            | 0.003553   |            |       |  1.13

Nlocal:    2001 ave 2001 max 2001 min
Histogram: 1 0 0 0 0 0 0 0 0 0
Nghost:    5302 ave 5302 max 5302 min
Histogram: 1 0 0 0 0 0 0 0 0 0
Neighs:    139432 ave 139432 max 139432 min
Histogram: 1 0 0 0 0 0 0 0 0 0

Total # of neighbors = 139432
Ave neighs/atom = 69.6812
Neighbor list builds = 0
Dangerous builds = 0
run 0
WARNING: No fixes defined, atoms won't move (../verlet.cpp:52)
Per MPI rank memory allocation (min/avg/max) = 3.588 | 3.588 | 3.588 Mbytes
Step Temp E_pair E_mol TotEng Press 
    1042    700.45537   -8242.1437            0   -8061.0618   -19961.391 
Loop time of 9.53674e-07 on 1 procs for 0 steps with 2001 atoms

104.9% CPU use with 1 MPI tasks x no OpenMP threads

MPI task timing breakdown:
Section |  min time  |  avg time  |  max time  |%varavg| %total
---------------------------------------------------------------
Pair    | 0          | 0          | 0          |   0.0 |  0.00
Neigh   | 0          | 0          | 0          |   0.0 |  0.00
Comm    | 0          | 0          | 0          |   0.0 |  0.00
Output  | 0          | 0          | 0          |   0.0 |  0.00
Modify  | 0          | 0          | 0          |   0.0 |  0.00
Other   |            | 9.537e-07  |            |       |100.00

Nlocal:    2001 ave 2001 max 2001 min
Histogram: 1 0 0 0 0 0 0 0 0 0
Nghost:    5471 ave 5471 max 5471 min
Histogram: 1 0 0 0 0 0 0 0 0 0
Neighs:    136159 ave 136159 max 136159 min
Histogram: 1 0 0 0 0 0 0 0 0 0

Total # of neighbors = 136159
Ave neighs/atom = 68.0455
Neighbor list builds = 0
Dangerous builds = 0
compute cna all cna/atom 3.45
compute 2 all reduce sum c_cna
thermo_style    custom step temp pe c_2
#dump		after_min all custom 1 dump/$iafter_min.dump x y z c_cna
run 0
WARNING: No fixes defined, atoms won't move (../verlet.cpp:52)
Neighbor list info ...
  update every 1 steps, delay 10 steps, check yes
  max neighbors/atom: 2000, page size: 100000
  master list distance cutoff = 7.3
  ghost atom cutoff = 7.3
  binsize = 3.65, bins = 8 8 8
  2 neighbor lists, perpetual/occasional/extra = 1 1 0
  (1) pair eam/fs, perpetual
      attributes: half, newton on
      pair build: half/bin/atomonly/newton
      stencil: half/bin/3d/newton
      bin: standard
  (2) compute cna/atom, occasional
      attributes: full, newton on
      pair build: full/bin/atomonly
      stencil: full/bin/3d
      bin: standard
Per MPI rank memory allocation (min/avg/max) = 4.439 | 4.439 | 4.439 Mbytes
Step Temp PotEng c_2 
    1042    700.45537   -8242.1437         6039 
Loop time of 9.53674e-07 on 1 procs for 0 steps with 2001 atoms

104.9% CPU use with 1 MPI tasks x no OpenMP threads

MPI task timing breakdown:
Section |  min time  |  avg time  |  max time  |%varavg| %total
---------------------------------------------------------------
Pair    | 0          | 0          | 0          |   0.0 |  0.00
Neigh   | 0          | 0          | 0          |   0.0 |  0.00
Comm    | 0          | 0          | 0          |   0.0 |  0.00
Output  | 0          | 0          | 0          |   0.0 |  0.00
Modify  | 0          | 0          | 0          |   0.0 |  0.00
Other   |            | 9.537e-07  |            |       |100.00

Nlocal:    2001 ave 2001 max 2001 min
Histogram: 1 0 0 0 0 0 0 0 0 0
Nghost:    5471 ave 5471 max 5471 min
Histogram: 1 0 0 0 0 0 0 0 0 0
Neighs:    136159 ave 136159 max 136159 min
Histogram: 1 0 0 0 0 0 0 0 0 0
FullNghs:  272318 ave 272318 max 272318 min
Histogram: 1 0 0 0 0 0 0 0 0 0

Total # of neighbors = 272318
Ave neighs/atom = 136.091
Neighbor list builds = 0
Dangerous builds = 0
#------------------------------------------------
variable cnat atom "c_cna != 3.0"
group sia_surround variable cnat
18 atoms in group sia_surround
dump		after_min_sia sia_surround custom 1 dump/after_min_sia.dump x y z
dump_modify after_min_sia append yes
compute comV sia_surround com

compute xu sia_surround property/atom xu
compute med_xu sia_surround reduce ave c_xu
compute med_x sia_surround reduce ave x

compute yu sia_surround property/atom yu
compute med_yu sia_surround reduce ave c_yu
compute med_y sia_surround reduce ave y
thermo_style custom step temp pe c_comV[1] c_comV[2] c_comV[3]
run 0
WARNING: No fixes defined, atoms won't move (../verlet.cpp:52)
Per MPI rank memory allocation (min/avg/max) = 7.643 | 7.643 | 7.643 Mbytes
Step Temp PotEng c_comV[1] c_comV[2] c_comV[3] 
    1042    700.45537   -8242.1437    15.791632     15.79138    15.791325 
Loop time of 2.14577e-06 on 1 procs for 0 steps with 2001 atoms

139.8% CPU use with 1 MPI tasks x no OpenMP threads

MPI task timing breakdown:
Section |  min time  |  avg time  |  max time  |%varavg| %total
---------------------------------------------------------------
Pair    | 0          | 0          | 0          |   0.0 |  0.00
Neigh   | 0          | 0          | 0          |   0.0 |  0.00
Comm    | 0          | 0          | 0          |   0.0 |  0.00
Output  | 0          | 0          | 0          |   0.0 |  0.00
Modify  | 0          | 0          | 0          |   0.0 |  0.00
Other   |            | 2.146e-06  |            |       |100.00

Nlocal:    2001 ave 2001 max 2001 min
Histogram: 1 0 0 0 0 0 0 0 0 0
Nghost:    5471 ave 5471 max 5471 min
Histogram: 1 0 0 0 0 0 0 0 0 0
Neighs:    136159 ave 136159 max 136159 min
Histogram: 1 0 0 0 0 0 0 0 0 0
FullNghs:  272318 ave 272318 max 272318 min
Histogram: 1 0 0 0 0 0 0 0 0 0

Total # of neighbors = 272318
Ave neighs/atom = 136.091
Neighbor list builds = 0
Dangerous builds = 0
variable med_xu equal c_med_xu
variable med_x equal c_med_x

variable med_yu equal c_med_yu
variable med_y equal c_med_y

variable comX equal c_comV[1]
variable comY equal c_comV[2]
variable comZ equal c_comV[3]
variable time equal ${time_step}/1000
variable time equal 1000/1000
variable ts equal time
#dump		after_min_local all local 1 dump/$ilocal_after_min.dump c_comV[1] c_med_x c_med_xu
# fix useless all print 1 "${ts};${time};${comX};${med_x};${med_xu};${comY};${comZ};" append "useless" screen no title ''
# run 2
# print "${ts};${time};${comX};${med_x};${med_xu};${comY};${comZ}" append coords/coords_$t
# print "${time};${comX};${med_xu};${med_x};      ${comY};${med_xu};${med_x};     ${comZ}" append coords/coords_$t
print "${time};${comX};${comY};${comZ}" append coords/coords_$t
print "${time};${comX};${comY};${comZ}" append coords/coords_700
1;15.7916324431852;15.7913795308036;15.7913252949683
run 0
WARNING: No fixes defined, atoms won't move (../verlet.cpp:52)
Per MPI rank memory allocation (min/avg/max) = 7.643 | 7.643 | 7.643 Mbytes
Step Temp PotEng c_comV[1] c_comV[2] c_comV[3] 
    1042    700.45537   -8242.1437    15.791632     15.79138    15.791325 
Loop time of 0 on 1 procs for 0 steps with 2001 atoms

0.0% CPU use with 1 MPI tasks x no OpenMP threads

MPI task timing breakdown:
Section |  min time  |  avg time  |  max time  |%varavg| %total
---------------------------------------------------------------
Pair    | 0          | 0          | 0          |   0.0 |  0.00
Neigh   | 0          | 0          | 0          |   0.0 |  0.00
Comm    | 0          | 0          | 0          |   0.0 |  0.00
Output  | 0          | 0          | 0          |   0.0 |  0.00
Modify  | 0          | 0          | 0          |   0.0 |  0.00
Other   |            | 0          |            |       |  0.00

Nlocal:    2001 ave 2001 max 2001 min
Histogram: 1 0 0 0 0 0 0 0 0 0
Nghost:    5471 ave 5471 max 5471 min
Histogram: 1 0 0 0 0 0 0 0 0 0
Neighs:    136159 ave 136159 max 136159 min
Histogram: 1 0 0 0 0 0 0 0 0 0
FullNghs:  272318 ave 272318 max 272318 min
Histogram: 1 0 0 0 0 0 0 0 0 0

Total # of neighbors = 272318
Ave neighs/atom = 136.091
Neighbor list builds = 0
Dangerous builds = 0
#print "${ts};${time};${comX};${med_x};${med_xu};${comY};${comZ}" append coords/coords_$t
clear
next i
jump restart_to_data.lmp
# -var l 2.8712 -var t 7100.0
#------------------------------------------------
shell mkdir coords
WARNING: Shell command 'mkdir' failed with error 'File exists' (../input.cpp:1292)
#------------------------------------------------
variable i loop 10000 #число рестартов
variable time_step equal 1000*$i
variable time_step equal 1000*2
#------------------------------------------------
read_restart ./restarts/$t/${time_step}
read_restart ./restarts/700/${time_step}
read_restart ./restarts/700/2000
  restoring atom style atomic from restart
  orthogonal box = (0 0 0) to (28.712 28.712 28.712)
  1 by 1 by 1 MPI processor grid
  pair style eam/fs stores no restart info
  2001 atoms
  read_restart CPU = 0.000299931 secs
pair_style      eam/fs
pair_coeff      * * ../Fe_mm.eam.fs Fe
Reading potential file ../Fe_mm.eam.fs with DATE: 2007-06-11
#dump		before_min all custom 1 dump/$ibefore_min.dump x y z
min_style cg
minimize 1e-9 1e-9 5000 5000
WARNING: Using 'neigh_modify every 1 delay 0 check yes' setting during minimization (../min.cpp:168)
Unused restart file peratom fix info:
  fix style: STORE, fix ID: msd_COMPUTE_STORE
Neighbor list info ...
  update every 1 steps, delay 0 steps, check yes
  max neighbors/atom: 2000, page size: 100000
  master list distance cutoff = 7.3
  ghost atom cutoff = 7.3
  binsize = 3.65, bins = 8 8 8
  1 neighbor lists, perpetual/occasional/extra = 1 0 0
  (1) pair eam/fs, perpetual
      attributes: half, newton on
      pair build: half/bin/atomonly/newton
      stencil: half/bin/3d/newton
      bin: standard
Per MPI rank memory allocation (min/avg/max) = 4.711 | 4.711 | 4.711 Mbytes
Step Temp E_pair E_mol TotEng Press 
    2000    673.05774   -8054.1282            0   -7880.1291   -1112.4772 
    2040    673.05774   -8242.1437            0   -8068.1446   -20280.969 
Loop time of 0.309631 on 1 procs for 40 steps with 2001 atoms

97.5% CPU use with 1 MPI tasks x no OpenMP threads

Minimization stats:
  Stopping criterion = energy tolerance
  Energy initial, next-to-last, final = 
        -8054.12820801      -8242.1437039     -8242.14371046
  Force two-norm initial, final = 54.7938 0.00992131
  Force max component initial, final = 2.48717 0.0038062
  Final line search alpha, max atom move = 1 0.0038062
  Iterations, force evaluations = 40 73

MPI task timing breakdown:
Section |  min time  |  avg time  |  max time  |%varavg| %total
---------------------------------------------------------------
Pair    | 0.30469    | 0.30469    | 0.30469    |   0.0 | 98.40
Neigh   | 0          | 0          | 0          |   0.0 |  0.00
Comm    | 0.0016868  | 0.0016868  | 0.0016868  |   0.0 |  0.54
Output  | 0          | 0          | 0          |   0.0 |  0.00
Modify  | 0          | 0          | 0          |   0.0 |  0.00
Other   |            | 0.003252   |            |       |  1.05

Nlocal:    2001 ave 2001 max 2001 min
Histogram: 1 0 0 0 0 0 0 0 0 0
Nghost:    5266 ave 5266 max 5266 min
Histogram: 1 0 0 0 0 0 0 0 0 0
Neighs:    139676 ave 139676 max 139676 min
Histogram: 1 0 0 0 0 0 0 0 0 0

Total # of neighbors = 139676
Ave neighs/atom = 69.8031
Neighbor list builds = 0
Dangerous builds = 0
run 0
WARNING: No fixes defined, atoms won't move (../verlet.cpp:52)
Per MPI rank memory allocation (min/avg/max) = 3.588 | 3.588 | 3.588 Mbytes
Step Temp E_pair E_mol TotEng Press 
    2040    673.05774   -8242.1437            0   -8068.1446   -20280.969 
Loop time of 9.53674e-07 on 1 procs for 0 steps with 2001 atoms

104.9% CPU use with 1 MPI tasks x no OpenMP threads

MPI task timing breakdown:
Section |  min time  |  avg time  |  max time  |%varavg| %total
---------------------------------------------------------------
Pair    | 0          | 0          | 0          |   0.0 |  0.00
Neigh   | 0          | 0          | 0          |   0.0 |  0.00
Comm    | 0          | 0          | 0          |   0.0 |  0.00
Output  | 0          | 0          | 0          |   0.0 |  0.00
Modify  | 0          | 0          | 0          |   0.0 |  0.00
Other   |            | 9.537e-07  |            |       |100.00

Nlocal:    2001 ave 2001 max 2001 min
Histogram: 1 0 0 0 0 0 0 0 0 0
Nghost:    5471 ave 5471 max 5471 min
Histogram: 1 0 0 0 0 0 0 0 0 0
Neighs:    136159 ave 136159 max 136159 min
Histogram: 1 0 0 0 0 0 0 0 0 0

Total # of neighbors = 136159
Ave neighs/atom = 68.0455
Neighbor list builds = 0
Dangerous builds = 0
compute cna all cna/atom 3.45
compute 2 all reduce sum c_cna
thermo_style    custom step temp pe c_2
#dump		after_min all custom 1 dump/$iafter_min.dump x y z c_cna
run 0
WARNING: No fixes defined, atoms won't move (../verlet.cpp:52)
Neighbor list info ...
  update every 1 steps, delay 10 steps, check yes
  max neighbors/atom: 2000, page size: 100000
  master list distance cutoff = 7.3
  ghost atom cutoff = 7.3
  binsize = 3.65, bins = 8 8 8
  2 neighbor lists, perpetual/occasional/extra = 1 1 0
  (1) pair eam/fs, perpetual
      attributes: half, newton on
      pair build: half/bin/atomonly/newton
      stencil: half/bin/3d/newton
      bin: standard
  (2) compute cna/atom, occasional
      attributes: full, newton on
      pair build: full/bin/atomonly
      stencil: full/bin/3d
      bin: standard
Per MPI rank memory allocation (min/avg/max) = 4.439 | 4.439 | 4.439 Mbytes
Step Temp PotEng c_2 
    2040    673.05774   -8242.1437         6039 
Loop time of 1.19209e-06 on 1 procs for 0 steps with 2001 atoms

83.9% CPU use with 1 MPI tasks x no OpenMP threads

MPI task timing breakdown:
Section |  min time  |  avg time  |  max time  |%varavg| %total
---------------------------------------------------------------
Pair    | 0          | 0          | 0          |   0.0 |  0.00
Neigh   | 0          | 0          | 0          |   0.0 |  0.00
Comm    | 0          | 0          | 0          |   0.0 |  0.00
Output  | 0          | 0          | 0          |   0.0 |  0.00
Modify  | 0          | 0          | 0          |   0.0 |  0.00
Other   |            | 1.192e-06  |            |       |100.00

Nlocal:    2001 ave 2001 max 2001 min
Histogram: 1 0 0 0 0 0 0 0 0 0
Nghost:    5471 ave 5471 max 5471 min
Histogram: 1 0 0 0 0 0 0 0 0 0
Neighs:    136159 ave 136159 max 136159 min
Histogram: 1 0 0 0 0 0 0 0 0 0
FullNghs:  272318 ave 272318 max 272318 min
Histogram: 1 0 0 0 0 0 0 0 0 0

Total # of neighbors = 272318
Ave neighs/atom = 136.091
Neighbor list builds = 0
Dangerous builds = 0
#------------------------------------------------
variable cnat atom "c_cna != 3.0"
group sia_surround variable cnat
18 atoms in group sia_surround
dump		after_min_sia sia_surround custom 1 dump/after_min_sia.dump x y z
dump_modify after_min_sia append yes
compute comV sia_surround com

compute xu sia_surround property/atom xu
compute med_xu sia_surround reduce ave c_xu
compute med_x sia_surround reduce ave x

compute yu sia_surround property/atom yu
compute med_yu sia_surround reduce ave c_yu
compute med_y sia_surround reduce ave y
thermo_style custom step temp pe c_comV[1] c_comV[2] c_comV[3]
run 0
WARNING: No fixes defined, atoms won't move (../verlet.cpp:52)
Per MPI rank memory allocation (min/avg/max) = 7.642 | 7.642 | 7.642 Mbytes
Step Temp PotEng c_comV[1] c_comV[2] c_comV[3] 
    2040    673.05774   -8242.1437    17.226449    17.226143    17.226156 
Loop time of 1.90735e-06 on 1 procs for 0 steps with 2001 atoms

209.7% CPU use with 1 MPI tasks x no OpenMP threads

MPI task timing breakdown:
Section |  min time  |  avg time  |  max time  |%varavg| %total
---------------------------------------------------------------
Pair    | 0          | 0          | 0          |   0.0 |  0.00
Neigh   | 0          | 0          | 0          |   0.0 |  0.00
Comm    | 0          | 0          | 0          |   0.0 |  0.00
Output  | 0          | 0          | 0          |   0.0 |  0.00
Modify  | 0          | 0          | 0          |   0.0 |  0.00
Other   |            | 1.907e-06  |            |       |100.00

Nlocal:    2001 ave 2001 max 2001 min
Histogram: 1 0 0 0 0 0 0 0 0 0
Nghost:    5471 ave 5471 max 5471 min
Histogram: 1 0 0 0 0 0 0 0 0 0
Neighs:    136159 ave 136159 max 136159 min
Histogram: 1 0 0 0 0 0 0 0 0 0
FullNghs:  272318 ave 272318 max 272318 min
Histogram: 1 0 0 0 0 0 0 0 0 0

Total # of neighbors = 272318
Ave neighs/atom = 136.091
Neighbor list builds = 0
Dangerous builds = 0
variable med_xu equal c_med_xu
variable med_x equal c_med_x

variable med_yu equal c_med_yu
variable med_y equal c_med_y

variable comX equal c_comV[1]
variable comY equal c_comV[2]
variable comZ equal c_comV[3]
variable time equal ${time_step}/1000
variable time equal 2000/1000
variable ts equal time
#dump		after_min_local all local 1 dump/$ilocal_after_min.dump c_comV[1] c_med_x c_med_xu
# fix useless all print 1 "${ts};${time};${comX};${med_x};${med_xu};${comY};${comZ};" append "useless" screen no title ''
# run 2
# print "${ts};${time};${comX};${med_x};${med_xu};${comY};${comZ}" append coords/coords_$t
# print "${time};${comX};${med_xu};${med_x};      ${comY};${med_xu};${med_x};     ${comZ}" append coords/coords_$t
print "${time};${comX};${comY};${comZ}" append coords/coords_$t
print "${time};${comX};${comY};${comZ}" append coords/coords_700
2;17.2264487900108;17.2261432415537;17.2261558313145
run 0
WARNING: No fixes defined, atoms won't move (../verlet.cpp:52)
Per MPI rank memory allocation (min/avg/max) = 7.642 | 7.642 | 7.642 Mbytes
Step Temp PotEng c_comV[1] c_comV[2] c_comV[3] 
    2040    673.05774   -8242.1437    17.226449    17.226143    17.226156 
Loop time of 9.53674e-07 on 1 procs for 0 steps with 2001 atoms

104.9% CPU use with 1 MPI tasks x no OpenMP threads

MPI task timing breakdown:
Section |  min time  |  avg time  |  max time  |%varavg| %total
---------------------------------------------------------------
Pair    | 0          | 0          | 0          |   0.0 |  0.00
Neigh   | 0          | 0          | 0          |   0.0 |  0.00
Comm    | 0          | 0          | 0          |   0.0 |  0.00
Output  | 0          | 0          | 0          |   0.0 |  0.00
Modify  | 0          | 0          | 0          |   0.0 |  0.00
Other   |            | 9.537e-07  |            |       |100.00

Nlocal:    2001 ave 2001 max 2001 min
Histogram: 1 0 0 0 0 0 0 0 0 0
Nghost:    5471 ave 5471 max 5471 min
Histogram: 1 0 0 0 0 0 0 0 0 0
Neighs:    136159 ave 136159 max 136159 min
Histogram: 1 0 0 0 0 0 0 0 0 0
FullNghs:  272318 ave 272318 max 272318 min
Histogram: 1 0 0 0 0 0 0 0 0 0

Total # of neighbors = 272318
Ave neighs/atom = 136.091
Neighbor list builds = 0
Dangerous builds = 0
#print "${ts};${time};${comX};${med_x};${med_xu};${comY};${comZ}" append coords/coords_$t
clear
next i
jump restart_to_data.lmp
# -var l 2.8712 -var t 7100.0
#------------------------------------------------
shell mkdir coords
WARNING: Shell command 'mkdir' failed with error 'File exists' (../input.cpp:1292)
#------------------------------------------------
variable i loop 10000 #число рестартов
variable time_step equal 1000*$i
variable time_step equal 1000*3
#------------------------------------------------
read_restart ./restarts/$t/${time_step}
read_restart ./restarts/700/${time_step}
read_restart ./restarts/700/3000
  restoring atom style atomic from restart
  orthogonal box = (0 0 0) to (28.712 28.712 28.712)
  1 by 1 by 1 MPI processor grid
  pair style eam/fs stores no restart info
  2001 atoms
  read_restart CPU = 0.000349045 secs
pair_style      eam/fs
pair_coeff      * * ../Fe_mm.eam.fs Fe
Reading potential file ../Fe_mm.eam.fs with DATE: 2007-06-11
#dump		before_min all custom 1 dump/$ibefore_min.dump x y z
min_style cg
minimize 1e-9 1e-9 5000 5000
WARNING: Using 'neigh_modify every 1 delay 0 check yes' setting during minimization (../min.cpp:168)
Unused restart file peratom fix info:
  fix style: STORE, fix ID: msd_COMPUTE_STORE
Neighbor list info ...
  update every 1 steps, delay 0 steps, check yes
  max neighbors/atom: 2000, page size: 100000
  master list distance cutoff = 7.3
  ghost atom cutoff = 7.3
  binsize = 3.65, bins = 8 8 8
  1 neighbor lists, perpetual/occasional/extra = 1 0 0
  (1) pair eam/fs, perpetual
      attributes: half, newton on
      pair build: half/bin/atomonly/newton
      stencil: half/bin/3d/newton
      bin: standard
Per MPI rank memory allocation (min/avg/max) = 4.71 | 4.71 | 4.71 Mbytes
Step Temp E_pair E_mol TotEng Press 
    3000    665.65177   -8052.2121            0   -7880.1277   -611.97261 
    3041    665.65177   -8242.1437            0   -8070.0592   -20367.371 
Loop time of 0.32044 on 1 procs for 41 steps with 2001 atoms

97.8% CPU use with 1 MPI tasks x no OpenMP threads

Minimization stats:
  Stopping criterion = energy tolerance
  Energy initial, next-to-last, final = 
        -8052.21214453     -8242.14369722     -8242.14370368
  Force two-norm initial, final = 55.7044 0.0116157
  Force max component initial, final = 2.76137 0.00278796
  Final line search alpha, max atom move = 1 0.00278796
  Iterations, force evaluations = 41 75

MPI task timing breakdown:
Section |  min time  |  avg time  |  max time  |%varavg| %total
---------------------------------------------------------------
Pair    | 0.31524    | 0.31524    | 0.31524    |   0.0 | 98.38
Neigh   | 0          | 0          | 0          |   0.0 |  0.00
Comm    | 0.0019541  | 0.0019541  | 0.0019541  |   0.0 |  0.61
Output  | 0          | 0          | 0          |   0.0 |  0.00
Modify  | 0          | 0          | 0          |   0.0 |  0.00
Other   |            | 0.003246   |            |       |  1.01

Nlocal:    2001 ave 2001 max 2001 min
Histogram: 1 0 0 0 0 0 0 0 0 0
Nghost:    5268 ave 5268 max 5268 min
Histogram: 1 0 0 0 0 0 0 0 0 0
Neighs:    139742 ave 139742 max 139742 min
Histogram: 1 0 0 0 0 0 0 0 0 0

Total # of neighbors = 139742
Ave neighs/atom = 69.8361
Neighbor list builds = 0
Dangerous builds = 0
run 0
WARNING: No fixes defined, atoms won't move (../verlet.cpp:52)
Per MPI rank memory allocation (min/avg/max) = 3.587 | 3.587 | 3.587 Mbytes
Step Temp E_pair E_mol TotEng Press 
    3041    665.65177   -8242.1437            0   -8070.0592   -20367.371 
Loop time of 9.53674e-07 on 1 procs for 0 steps with 2001 atoms

104.9% CPU use with 1 MPI tasks x no OpenMP threads

MPI task timing breakdown:
Section |  min time  |  avg time  |  max time  |%varavg| %total
---------------------------------------------------------------
Pair    | 0          | 0          | 0          |   0.0 |  0.00
Neigh   | 0          | 0          | 0          |   0.0 |  0.00
Comm    | 0          | 0          | 0          |   0.0 |  0.00
Output  | 0          | 0          | 0          |   0.0 |  0.00
Modify  | 0          | 0          | 0          |   0.0 |  0.00
Other   |            | 9.537e-07  |            |       |100.00

Nlocal:    2001 ave 2001 max 2001 min
Histogram: 1 0 0 0 0 0 0 0 0 0
Nghost:    5471 ave 5471 max 5471 min
Histogram: 1 0 0 0 0 0 0 0 0 0
Neighs:    136159 ave 136159 max 136159 min
Histogram: 1 0 0 0 0 0 0 0 0 0

Total # of neighbors = 136159
Ave neighs/atom = 68.0455
Neighbor list builds = 0
Dangerous builds = 0
compute cna all cna/atom 3.45
compute 2 all reduce sum c_cna
thermo_style    custom step temp pe c_2
#dump		after_min all custom 1 dump/$iafter_min.dump x y z c_cna
run 0
WARNING: No fixes defined, atoms won't move (../verlet.cpp:52)
Neighbor list info ...
  update every 1 steps, delay 10 steps, check yes
  max neighbors/atom: 2000, page size: 100000
  master list distance cutoff = 7.3
  ghost atom cutoff = 7.3
  binsize = 3.65, bins = 8 8 8
  2 neighbor lists, perpetual/occasional/extra = 1 1 0
  (1) pair eam/fs, perpetual
      attributes: half, newton on
      pair build: half/bin/atomonly/newton
      stencil: half/bin/3d/newton
      bin: standard
  (2) compute cna/atom, occasional
      attributes: full, newton on
      pair build: full/bin/atomonly
      stencil: full/bin/3d
      bin: standard
Per MPI rank memory allocation (min/avg/max) = 4.438 | 4.438 | 4.438 Mbytes
Step Temp PotEng c_2 
    3041    665.65177   -8242.1437         6039 
Loop time of 1.90735e-06 on 1 procs for 0 steps with 2001 atoms

52.4% CPU use with 1 MPI tasks x no OpenMP threads

MPI task timing breakdown:
Section |  min time  |  avg time  |  max time  |%varavg| %total
---------------------------------------------------------------
Pair    | 0          | 0          | 0          |   0.0 |  0.00
Neigh   | 0          | 0          | 0          |   0.0 |  0.00
Comm    | 0          | 0          | 0          |   0.0 |  0.00
Output  | 0          | 0          | 0          |   0.0 |  0.00
Modify  | 0          | 0          | 0          |   0.0 |  0.00
Other   |            | 1.907e-06  |            |       |100.00

Nlocal:    2001 ave 2001 max 2001 min
Histogram: 1 0 0 0 0 0 0 0 0 0
Nghost:    5471 ave 5471 max 5471 min
Histogram: 1 0 0 0 0 0 0 0 0 0
Neighs:    136159 ave 136159 max 136159 min
Histogram: 1 0 0 0 0 0 0 0 0 0
FullNghs:  272318 ave 272318 max 272318 min
Histogram: 1 0 0 0 0 0 0 0 0 0

Total # of neighbors = 272318
Ave neighs/atom = 136.091
Neighbor list builds = 0
Dangerous builds = 0
#------------------------------------------------
variable cnat atom "c_cna != 3.0"
group sia_surround variable cnat
18 atoms in group sia_surround
dump		after_min_sia sia_surround custom 1 dump/after_min_sia.dump x y z
dump_modify after_min_sia append yes
compute comV sia_surround com

compute xu sia_surround property/atom xu
compute med_xu sia_surround reduce ave c_xu
compute med_x sia_surround reduce ave x

compute yu sia_surround property/atom yu
compute med_yu sia_surround reduce ave c_yu
compute med_y sia_surround reduce ave y
thermo_style custom step temp pe c_comV[1] c_comV[2] c_comV[3]
run 0
WARNING: No fixes defined, atoms won't move (../verlet.cpp:52)
Per MPI rank memory allocation (min/avg/max) = 7.641 | 7.641 | 7.641 Mbytes
Step Temp PotEng c_comV[1] c_comV[2] c_comV[3] 
    3041    665.65177   -8242.1437    17.226549    17.226117    17.226147 
Loop time of 1.19209e-06 on 1 procs for 0 steps with 2001 atoms

83.9% CPU use with 1 MPI tasks x no OpenMP threads

MPI task timing breakdown:
Section |  min time  |  avg time  |  max time  |%varavg| %total
---------------------------------------------------------------
Pair    | 0          | 0          | 0          |   0.0 |  0.00
Neigh   | 0          | 0          | 0          |   0.0 |  0.00
Comm    | 0          | 0          | 0          |   0.0 |  0.00
Output  | 0          | 0          | 0          |   0.0 |  0.00
Modify  | 0          | 0          | 0          |   0.0 |  0.00
Other   |            | 1.192e-06  |            |       |100.00

Nlocal:    2001 ave 2001 max 2001 min
Histogram: 1 0 0 0 0 0 0 0 0 0
Nghost:    5471 ave 5471 max 5471 min
Histogram: 1 0 0 0 0 0 0 0 0 0
Neighs:    136159 ave 136159 max 136159 min
Histogram: 1 0 0 0 0 0 0 0 0 0
FullNghs:  272318 ave 272318 max 272318 min
Histogram: 1 0 0 0 0 0 0 0 0 0

Total # of neighbors = 272318
Ave neighs/atom = 136.091
Neighbor list builds = 0
Dangerous builds = 0
variable med_xu equal c_med_xu
variable med_x equal c_med_x

variable med_yu equal c_med_yu
variable med_y equal c_med_y

variable comX equal c_comV[1]
variable comY equal c_comV[2]
variable comZ equal c_comV[3]
variable time equal ${time_step}/1000
variable time equal 3000/1000
variable ts equal time
#dump		after_min_local all local 1 dump/$ilocal_after_min.dump c_comV[1] c_med_x c_med_xu
# fix useless all print 1 "${ts};${time};${comX};${med_x};${med_xu};${comY};${comZ};" append "useless" screen no title ''
# run 2
# print "${ts};${time};${comX};${med_x};${med_xu};${comY};${comZ}" append coords/coords_$t
# print "${time};${comX};${med_xu};${med_x};      ${comY};${med_xu};${med_x};     ${comZ}" append coords/coords_$t
print "${time};${comX};${comY};${comZ}" append coords/coords_$t
print "${time};${comX};${comY};${comZ}" append coords/coords_700
3;17.2265494863949;17.226117192513;17.2261468343286
run 0
WARNING: No fixes defined, atoms won't move (../verlet.cpp:52)
Per MPI rank memory allocation (min/avg/max) = 7.641 | 7.641 | 7.641 Mbytes
Step Temp PotEng c_comV[1] c_comV[2] c_comV[3] 
    3041    665.65177   -8242.1437    17.226549    17.226117    17.226147 
Loop time of 1.19209e-06 on 1 procs for 0 steps with 2001 atoms

83.9% CPU use with 1 MPI tasks x no OpenMP threads

MPI task timing breakdown:
Section |  min time  |  avg time  |  max time  |%varavg| %total
---------------------------------------------------------------
Pair    | 0          | 0          | 0          |   0.0 |  0.00
Neigh   | 0          | 0          | 0          |   0.0 |  0.00
Comm    | 0          | 0          | 0          |   0.0 |  0.00
Output  | 0          | 0          | 0          |   0.0 |  0.00
Modify  | 0          | 0          | 0          |   0.0 |  0.00
Other   |            | 1.192e-06  |            |       |100.00

Nlocal:    2001 ave 2001 max 2001 min
Histogram: 1 0 0 0 0 0 0 0 0 0
Nghost:    5471 ave 5471 max 5471 min
Histogram: 1 0 0 0 0 0 0 0 0 0
Neighs:    136159 ave 136159 max 136159 min
Histogram: 1 0 0 0 0 0 0 0 0 0
FullNghs:  272318 ave 272318 max 272318 min
Histogram: 1 0 0 0 0 0 0 0 0 0

Total # of neighbors = 272318
Ave neighs/atom = 136.091
Neighbor list builds = 0
Dangerous builds = 0
#print "${ts};${time};${comX};${med_x};${med_xu};${comY};${comZ}" append coords/coords_$t
clear
next i
jump restart_to_data.lmp
# -var l 2.8712 -var t 7100.0
#------------------------------------------------
shell mkdir coords
WARNING: Shell command 'mkdir' failed with error 'File exists' (../input.cpp:1292)
#------------------------------------------------
variable i loop 10000 #число рестартов
variable time_step equal 1000*$i
variable time_step equal 1000*4
#------------------------------------------------
read_restart ./restarts/$t/${time_step}
read_restart ./restarts/700/${time_step}
read_restart ./restarts/700/4000
  restoring atom style atomic from restart
  orthogonal box = (0 0 0) to (28.712 28.712 28.712)
  1 by 1 by 1 MPI processor grid
  pair style eam/fs stores no restart info
  2001 atoms
  read_restart CPU = 0.000312805 secs
pair_style      eam/fs
pair_coeff      * * ../Fe_mm.eam.fs Fe
Reading potential file ../Fe_mm.eam.fs with DATE: 2007-06-11
#dump		before_min all custom 1 dump/$ibefore_min.dump x y z
min_style cg
minimize 1e-9 1e-9 5000 5000
WARNING: Using 'neigh_modify every 1 delay 0 check yes' setting during minimization (../min.cpp:168)
Unused restart file peratom fix info:
  fix style: STORE, fix ID: msd_COMPUTE_STORE
Neighbor list info ...
  update every 1 steps, delay 0 steps, check yes
  max neighbors/atom: 2000, page size: 100000
  master list distance cutoff = 7.3
  ghost atom cutoff = 7.3
  binsize = 3.65, bins = 8 8 8
  1 neighbor lists, perpetual/occasional/extra = 1 0 0
  (1) pair eam/fs, perpetual
      attributes: half, newton on
      pair build: half/bin/atomonly/newton
      stencil: half/bin/3d/newton
      bin: standard
Per MPI rank memory allocation (min/avg/max) = 4.709 | 4.709 | 4.709 Mbytes
Step Temp E_pair E_mol TotEng Press 
    4000    670.25252   -8053.4029            0    -7880.129   -978.85683 
    4038    670.25252   -8242.1437            0   -8068.8698   -20313.738 
Loop time of 0.324748 on 1 procs for 38 steps with 2001 atoms

94.7% CPU use with 1 MPI tasks x no OpenMP threads

Minimization stats:
  Stopping criterion = energy tolerance
  Energy initial, next-to-last, final = 
        -8053.40291297     -8242.14369205     -8242.14369872
  Force two-norm initial, final = 54.7797 0.0120675
  Force max component initial, final = 2.68448 0.00382056
  Final line search alpha, max atom move = 1 0.00382056
  Iterations, force evaluations = 38 70

MPI task timing breakdown:
Section |  min time  |  avg time  |  max time  |%varavg| %total
---------------------------------------------------------------
Pair    | 0.3195     | 0.3195     | 0.3195     |   0.0 | 98.38
Neigh   | 0          | 0          | 0          |   0.0 |  0.00
Comm    | 0.0019014  | 0.0019014  | 0.0019014  |   0.0 |  0.59
Output  | 0          | 0          | 0          |   0.0 |  0.00
Modify  | 0          | 0          | 0          |   0.0 |  0.00
Other   |            | 0.003351   |            |       |  1.03

Nlocal:    2001 ave 2001 max 2001 min
Histogram: 1 0 0 0 0 0 0 0 0 0
Nghost:    5255 ave 5255 max 5255 min
Histogram: 1 0 0 0 0 0 0 0 0 0
Neighs:    139730 ave 139730 max 139730 min
Histogram: 1 0 0 0 0 0 0 0 0 0

Total # of neighbors = 139730
Ave neighs/atom = 69.8301
Neighbor list builds = 0
Dangerous builds = 0
run 0
WARNING: No fixes defined, atoms won't move (../verlet.cpp:52)
Per MPI rank memory allocation (min/avg/max) = 3.586 | 3.586 | 3.586 Mbytes
Step Temp E_pair E_mol TotEng Press 
    4038    670.25252   -8242.1437            0   -8068.8698   -20313.738 
Loop time of 1.19209e-06 on 1 procs for 0 steps with 2001 atoms

83.9% CPU use with 1 MPI tasks x no OpenMP threads

MPI task timing breakdown:
Section |  min time  |  avg time  |  max time  |%varavg| %total
---------------------------------------------------------------
Pair    | 0          | 0          | 0          |   0.0 |  0.00
Neigh   | 0          | 0          | 0          |   0.0 |  0.00
Comm    | 0          | 0          | 0          |   0.0 |  0.00
Output  | 0          | 0          | 0          |   0.0 |  0.00
Modify  | 0          | 0          | 0          |   0.0 |  0.00
Other   |            | 1.192e-06  |            |       |100.00

Nlocal:    2001 ave 2001 max 2001 min
Histogram: 1 0 0 0 0 0 0 0 0 0
Nghost:    5471 ave 5471 max 5471 min
Histogram: 1 0 0 0 0 0 0 0 0 0
Neighs:    136159 ave 136159 max 136159 min
Histogram: 1 0 0 0 0 0 0 0 0 0

Total # of neighbors = 136159
Ave neighs/atom = 68.0455
Neighbor list builds = 0
Dangerous builds = 0
compute cna all cna/atom 3.45
compute 2 all reduce sum c_cna
thermo_style    custom step temp pe c_2
#dump		after_min all custom 1 dump/$iafter_min.dump x y z c_cna
run 0
WARNING: No fixes defined, atoms won't move (../verlet.cpp:52)
Neighbor list info ...
  update every 1 steps, delay 10 steps, check yes
  max neighbors/atom: 2000, page size: 100000
  master list distance cutoff = 7.3
  ghost atom cutoff = 7.3
  binsize = 3.65, bins = 8 8 8
  2 neighbor lists, perpetual/occasional/extra = 1 1 0
  (1) pair eam/fs, perpetual
      attributes: half, newton on
      pair build: half/bin/atomonly/newton
      stencil: half/bin/3d/newton
      bin: standard
  (2) compute cna/atom, occasional
      attributes: full, newton on
      pair build: full/bin/atomonly
      stencil: full/bin/3d
      bin: standard
Per MPI rank memory allocation (min/avg/max) = 4.437 | 4.437 | 4.437 Mbytes
Step Temp PotEng c_2 
    4038    670.25252   -8242.1437         6039 
Loop time of 9.53674e-07 on 1 procs for 0 steps with 2001 atoms

209.7% CPU use with 1 MPI tasks x no OpenMP threads

MPI task timing breakdown:
Section |  min time  |  avg time  |  max time  |%varavg| %total
---------------------------------------------------------------
Pair    | 0          | 0          | 0          |   0.0 |  0.00
Neigh   | 0          | 0          | 0          |   0.0 |  0.00
Comm    | 0          | 0          | 0          |   0.0 |  0.00
Output  | 0          | 0          | 0          |   0.0 |  0.00
Modify  | 0          | 0          | 0          |   0.0 |  0.00
Other   |            | 9.537e-07  |            |       |100.00

Nlocal:    2001 ave 2001 max 2001 min
Histogram: 1 0 0 0 0 0 0 0 0 0
Nghost:    5471 ave 5471 max 5471 min
Histogram: 1 0 0 0 0 0 0 0 0 0
Neighs:    136159 ave 136159 max 136159 min
Histogram: 1 0 0 0 0 0 0 0 0 0
FullNghs:  272318 ave 272318 max 272318 min
Histogram: 1 0 0 0 0 0 0 0 0 0

Total # of neighbors = 272318
Ave neighs/atom = 136.091
Neighbor list builds = 0
Dangerous builds = 0
#------------------------------------------------
variable cnat atom "c_cna != 3.0"
group sia_surround variable cnat
18 atoms in group sia_surround
dump		after_min_sia sia_surround custom 1 dump/after_min_sia.dump x y z
dump_modify after_min_sia append yes
compute comV sia_surround com

compute xu sia_surround property/atom xu
compute med_xu sia_surround reduce ave c_xu
compute med_x sia_surround reduce ave x

compute yu sia_surround property/atom yu
compute med_yu sia_surround reduce ave c_yu
compute med_y sia_surround reduce ave y
thermo_style custom step temp pe c_comV[1] c_comV[2] c_comV[3]
run 0
WARNING: No fixes defined, atoms won't move (../verlet.cpp:52)
Per MPI rank memory allocation (min/avg/max) = 7.64 | 7.64 | 7.64 Mbytes
Step Temp PotEng c_comV[1] c_comV[2] c_comV[3] 
    4038    670.25252   -8242.1437    17.226558    17.226099    17.226178 
Loop time of 9.53674e-07 on 1 procs for 0 steps with 2001 atoms

104.9% CPU use with 1 MPI tasks x no OpenMP threads

MPI task timing breakdown:
Section |  min time  |  avg time  |  max time  |%varavg| %total
---------------------------------------------------------------
Pair    | 0          | 0          | 0          |   0.0 |  0.00
Neigh   | 0          | 0          | 0          |   0.0 |  0.00
Comm    | 0          | 0          | 0          |   0.0 |  0.00
Output  | 0          | 0          | 0          |   0.0 |  0.00
Modify  | 0          | 0          | 0          |   0.0 |  0.00
Other   |            | 9.537e-07  |            |       |100.00

Nlocal:    2001 ave 2001 max 2001 min
Histogram: 1 0 0 0 0 0 0 0 0 0
Nghost:    5471 ave 5471 max 5471 min
Histogram: 1 0 0 0 0 0 0 0 0 0
Neighs:    136159 ave 136159 max 136159 min
Histogram: 1 0 0 0 0 0 0 0 0 0
FullNghs:  272318 ave 272318 max 272318 min
Histogram: 1 0 0 0 0 0 0 0 0 0

Total # of neighbors = 272318
Ave neighs/atom = 136.091
Neighbor list builds = 0
Dangerous builds = 0
variable med_xu equal c_med_xu
variable med_x equal c_med_x

variable med_yu equal c_med_yu
variable med_y equal c_med_y

variable comX equal c_comV[1]
variable comY equal c_comV[2]
variable comZ equal c_comV[3]
variable time equal ${time_step}/1000
variable time equal 4000/1000
variable ts equal time
#dump		after_min_local all local 1 dump/$ilocal_after_min.dump c_comV[1] c_med_x c_med_xu
# fix useless all print 1 "${ts};${time};${comX};${med_x};${med_xu};${comY};${comZ};" append "useless" screen no title ''
# run 2
# print "${ts};${time};${comX};${med_x};${med_xu};${comY};${comZ}" append coords/coords_$t
# print "${time};${comX};${med_xu};${med_x};      ${comY};${med_xu};${med_x};     ${comZ}" append coords/coords_$t
print "${time};${comX};${comY};${comZ}" append coords/coords_$t
print "${time};${comX};${comY};${comZ}" append coords/coords_700
4;17.2265580680165;17.2260992238542;17.2261783685234
run 0
WARNING: No fixes defined, atoms won't move (../verlet.cpp:52)
Per MPI rank memory allocation (min/avg/max) = 7.64 | 7.64 | 7.64 Mbytes
Step Temp PotEng c_comV[1] c_comV[2] c_comV[3] 
    4038    670.25252   -8242.1437    17.226558    17.226099    17.226178 
Loop time of 9.53674e-07 on 1 procs for 0 steps with 2001 atoms

209.7% CPU use with 1 MPI tasks x no OpenMP threads

MPI task timing breakdown:
Section |  min time  |  avg time  |  max time  |%varavg| %total
---------------------------------------------------------------
Pair    | 0          | 0          | 0          |   0.0 |  0.00
Neigh   | 0          | 0          | 0          |   0.0 |  0.00
Comm    | 0          | 0          | 0          |   0.0 |  0.00
Output  | 0          | 0          | 0          |   0.0 |  0.00
Modify  | 0          | 0          | 0          |   0.0 |  0.00
Other   |            | 9.537e-07  |            |       |100.00

Nlocal:    2001 ave 2001 max 2001 min
Histogram: 1 0 0 0 0 0 0 0 0 0
Nghost:    5471 ave 5471 max 5471 min
Histogram: 1 0 0 0 0 0 0 0 0 0
Neighs:    136159 ave 136159 max 136159 min
Histogram: 1 0 0 0 0 0 0 0 0 0
FullNghs:  272318 ave 272318 max 272318 min
Histogram: 1 0 0 0 0 0 0 0 0 0

Total # of neighbors = 272318
Ave neighs/atom = 136.091
Neighbor list builds = 0
Dangerous builds = 0
#print "${ts};${time};${comX};${med_x};${med_xu};${comY};${comZ}" append coords/coords_$t
clear
next i
jump restart_to_data.lmp
# -var l 2.8712 -var t 7100.0
#------------------------------------------------
shell mkdir coords
WARNING: Shell command 'mkdir' failed with error 'File exists' (../input.cpp:1292)
#------------------------------------------------
variable i loop 10000 #число рестартов
variable time_step equal 1000*$i
variable time_step equal 1000*5
#------------------------------------------------
read_restart ./restarts/$t/${time_step}
read_restart ./restarts/700/${time_step}
read_restart ./restarts/700/5000
  restoring atom style atomic from restart
  orthogonal box = (0 0 0) to (28.712 28.712 28.712)
  1 by 1 by 1 MPI processor grid
  pair style eam/fs stores no restart info
  2001 atoms
  read_restart CPU = 0.000616074 secs
pair_style      eam/fs
pair_coeff      * * ../Fe_mm.eam.fs Fe
Reading potential file ../Fe_mm.eam.fs with DATE: 2007-06-11
#dump		before_min all custom 1 dump/$ibefore_min.dump x y z
min_style cg
minimize 1e-9 1e-9 5000 5000
WARNING: Using 'neigh_modify every 1 delay 0 check yes' setting during minimization (../min.cpp:168)
Unused restart file peratom fix info:
  fix style: STORE, fix ID: msd_COMPUTE_STORE
Neighbor list info ...
  update every 1 steps, delay 0 steps, check yes
  max neighbors/atom: 2000, page size: 100000
  master list distance cutoff = 7.3
  ghost atom cutoff = 7.3
  binsize = 3.65, bins = 8 8 8
  1 neighbor lists, perpetual/occasional/extra = 1 0 0
  (1) pair eam/fs, perpetual
      attributes: half, newton on
      pair build: half/bin/atomonly/newton
      stencil: half/bin/3d/newton
      bin: standard
Per MPI rank memory allocation (min/avg/max) = 4.715 | 4.715 | 4.715 Mbytes
Step Temp E_pair E_mol TotEng Press 
    5000    672.45988   -8053.9735            0    -7880.129   -700.85276 
    5040    672.45988   -8242.1437            0   -8068.2992   -20287.998 
Loop time of 0.315378 on 1 procs for 40 steps with 2001 atoms

98.4% CPU use with 1 MPI tasks x no OpenMP threads

Minimization stats:
  Stopping criterion = energy tolerance
  Energy initial, next-to-last, final = 
        -8053.97350938     -8242.14370412     -8242.14370998
  Force two-norm initial, final = 55.3273 0.0102169
  Force max component initial, final = 2.70333 0.00406172
  Final line search alpha, max atom move = 1 0.00406172
  Iterations, force evaluations = 40 74

MPI task timing breakdown:
Section |  min time  |  avg time  |  max time  |%varavg| %total
---------------------------------------------------------------
Pair    | 0.31061    | 0.31061    | 0.31061    |   0.0 | 98.49
Neigh   | 0          | 0          | 0          |   0.0 |  0.00
Comm    | 0.0016558  | 0.0016558  | 0.0016558  |   0.0 |  0.53
Output  | 0          | 0          | 0          |   0.0 |  0.00
Modify  | 0          | 0          | 0          |   0.0 |  0.00
Other   |            | 0.003114   |            |       |  0.99

Nlocal:    2001 ave 2001 max 2001 min
Histogram: 1 0 0 0 0 0 0 0 0 0
Nghost:    5303 ave 5303 max 5303 min
Histogram: 1 0 0 0 0 0 0 0 0 0
Neighs:    139689 ave 139689 max 139689 min
Histogram: 1 0 0 0 0 0 0 0 0 0

Total # of neighbors = 139689
Ave neighs/atom = 69.8096
Neighbor list builds = 0
Dangerous builds = 0
run 0
WARNING: No fixes defined, atoms won't move (../verlet.cpp:52)
Per MPI rank memory allocation (min/avg/max) = 3.591 | 3.591 | 3.591 Mbytes
Step Temp E_pair E_mol TotEng Press 
    5040    672.45988   -8242.1437            0   -8068.2992   -20287.998 
Loop time of 9.53674e-07 on 1 procs for 0 steps with 2001 atoms

104.9% CPU use with 1 MPI tasks x no OpenMP threads

MPI task timing breakdown:
Section |  min time  |  avg time  |  max time  |%varavg| %total
---------------------------------------------------------------
Pair    | 0          | 0          | 0          |   0.0 |  0.00
Neigh   | 0          | 0          | 0          |   0.0 |  0.00
Comm    | 0          | 0          | 0          |   0.0 |  0.00
Output  | 0          | 0          | 0          |   0.0 |  0.00
Modify  | 0          | 0          | 0          |   0.0 |  0.00
Other   |            | 9.537e-07  |            |       |100.00

Nlocal:    2001 ave 2001 max 2001 min
Histogram: 1 0 0 0 0 0 0 0 0 0
Nghost:    5471 ave 5471 max 5471 min
Histogram: 1 0 0 0 0 0 0 0 0 0
Neighs:    136159 ave 136159 max 136159 min
Histogram: 1 0 0 0 0 0 0 0 0 0

Total # of neighbors = 136159
Ave neighs/atom = 68.0455
Neighbor list builds = 0
Dangerous builds = 0
compute cna all cna/atom 3.45
compute 2 all reduce sum c_cna
thermo_style    custom step temp pe c_2
#dump		after_min all custom 1 dump/$iafter_min.dump x y z c_cna
run 0
WARNING: No fixes defined, atoms won't move (../verlet.cpp:52)
Neighbor list info ...
  update every 1 steps, delay 10 steps, check yes
  max neighbors/atom: 2000, page size: 100000
  master list distance cutoff = 7.3
  ghost atom cutoff = 7.3
  binsize = 3.65, bins = 8 8 8
  2 neighbor lists, perpetual/occasional/extra = 1 1 0
  (1) pair eam/fs, perpetual
      attributes: half, newton on
      pair build: half/bin/atomonly/newton
      stencil: half/bin/3d/newton
      bin: standard
  (2) compute cna/atom, occasional
      attributes: full, newton on
      pair build: full/bin/atomonly
      stencil: full/bin/3d
      bin: standard
Per MPI rank memory allocation (min/avg/max) = 4.442 | 4.442 | 4.442 Mbytes
Step Temp PotEng c_2 
    5040    672.45988   -8242.1437         6039 
Loop time of 1.19209e-06 on 1 procs for 0 steps with 2001 atoms

83.9% CPU use with 1 MPI tasks x no OpenMP threads

MPI task timing breakdown:
Section |  min time  |  avg time  |  max time  |%varavg| %total
---------------------------------------------------------------
Pair    | 0          | 0          | 0          |   0.0 |  0.00
Neigh   | 0          | 0          | 0          |   0.0 |  0.00
Comm    | 0          | 0          | 0          |   0.0 |  0.00
Output  | 0          | 0          | 0          |   0.0 |  0.00
Modify  | 0          | 0          | 0          |   0.0 |  0.00
Other   |            | 1.192e-06  |            |       |100.00

Nlocal:    2001 ave 2001 max 2001 min
Histogram: 1 0 0 0 0 0 0 0 0 0
Nghost:    5471 ave 5471 max 5471 min
Histogram: 1 0 0 0 0 0 0 0 0 0
Neighs:    136159 ave 136159 max 136159 min
Histogram: 1 0 0 0 0 0 0 0 0 0
FullNghs:  272318 ave 272318 max 272318 min
Histogram: 1 0 0 0 0 0 0 0 0 0

Total # of neighbors = 272318
Ave neighs/atom = 136.091
Neighbor list builds = 0
Dangerous builds = 0
#------------------------------------------------
variable cnat atom "c_cna != 3.0"
group sia_surround variable cnat
18 atoms in group sia_surround
dump		after_min_sia sia_surround custom 1 dump/after_min_sia.dump x y z
dump_modify after_min_sia append yes
compute comV sia_surround com

compute xu sia_surround property/atom xu
compute med_xu sia_surround reduce ave c_xu
compute med_x sia_surround reduce ave x

compute yu sia_surround property/atom yu
compute med_yu sia_surround reduce ave c_yu
compute med_y sia_surround reduce ave y
thermo_style custom step temp pe c_comV[1] c_comV[2] c_comV[3]
run 0
WARNING: No fixes defined, atoms won't move (../verlet.cpp:52)
Per MPI rank memory allocation (min/avg/max) = 7.645 | 7.645 | 7.645 Mbytes
Step Temp PotEng c_comV[1] c_comV[2] c_comV[3] 
    5040    672.45988   -8242.1437    17.226485    17.226343    17.226206 
Loop time of 9.53674e-07 on 1 procs for 0 steps with 2001 atoms

104.9% CPU use with 1 MPI tasks x no OpenMP threads

MPI task timing breakdown:
Section |  min time  |  avg time  |  max time  |%varavg| %total
---------------------------------------------------------------
Pair    | 0          | 0          | 0          |   0.0 |  0.00
Neigh   | 0          | 0          | 0          |   0.0 |  0.00
Comm    | 0          | 0          | 0          |   0.0 |  0.00
Output  | 0          | 0          | 0          |   0.0 |  0.00
Modify  | 0          | 0          | 0          |   0.0 |  0.00
Other   |            | 9.537e-07  |            |       |100.00

Nlocal:    2001 ave 2001 max 2001 min
Histogram: 1 0 0 0 0 0 0 0 0 0
Nghost:    5471 ave 5471 max 5471 min
Histogram: 1 0 0 0 0 0 0 0 0 0
Neighs:    136159 ave 136159 max 136159 min
Histogram: 1 0 0 0 0 0 0 0 0 0
FullNghs:  272318 ave 272318 max 272318 min
Histogram: 1 0 0 0 0 0 0 0 0 0

Total # of neighbors = 272318
Ave neighs/atom = 136.091
Neighbor list builds = 0
Dangerous builds = 0
variable med_xu equal c_med_xu
variable med_x equal c_med_x

variable med_yu equal c_med_yu
variable med_y equal c_med_y

variable comX equal c_comV[1]
variable comY equal c_comV[2]
variable comZ equal c_comV[3]
variable time equal ${time_step}/1000
variable time equal 5000/1000
variable ts equal time
#dump		after_min_local all local 1 dump/$ilocal_after_min.dump c_comV[1] c_med_x c_med_xu
# fix useless all print 1 "${ts};${time};${comX};${med_x};${med_xu};${comY};${comZ};" append "useless" screen no title ''
# run 2
# print "${ts};${time};${comX};${med_x};${med_xu};${comY};${comZ}" append coords/coords_$t
# print "${time};${comX};${med_xu};${med_x};      ${comY};${med_xu};${med_x};     ${comZ}" append coords/coords_$t
print "${time};${comX};${comY};${comZ}" append coords/coords_$t
print "${time};${comX};${comY};${comZ}" append coords/coords_700
5;17.2264850707095;17.2263433963072;17.2262061566493
run 0
WARNING: No fixes defined, atoms won't move (../verlet.cpp:52)
Per MPI rank memory allocation (min/avg/max) = 7.645 | 7.645 | 7.645 Mbytes
Step Temp PotEng c_comV[1] c_comV[2] c_comV[3] 
    5040    672.45988   -8242.1437    17.226485    17.226343    17.226206 
Loop time of 9.53674e-07 on 1 procs for 0 steps with 2001 atoms

0.0% CPU use with 1 MPI tasks x no OpenMP threads

MPI task timing breakdown:
Section |  min time  |  avg time  |  max time  |%varavg| %total
---------------------------------------------------------------
Pair    | 0          | 0          | 0          |   0.0 |  0.00
Neigh   | 0          | 0          | 0          |   0.0 |  0.00
Comm    | 0          | 0          | 0          |   0.0 |  0.00
Output  | 0          | 0          | 0          |   0.0 |  0.00
Modify  | 0          | 0          | 0          |   0.0 |  0.00
Other   |            | 9.537e-07  |            |       |100.00

Nlocal:    2001 ave 2001 max 2001 min
Histogram: 1 0 0 0 0 0 0 0 0 0
Nghost:    5471 ave 5471 max 5471 min
Histogram: 1 0 0 0 0 0 0 0 0 0
Neighs:    136159 ave 136159 max 136159 min
Histogram: 1 0 0 0 0 0 0 0 0 0
FullNghs:  272318 ave 272318 max 272318 min
Histogram: 1 0 0 0 0 0 0 0 0 0

Total # of neighbors = 272318
Ave neighs/atom = 136.091
Neighbor list builds = 0
Dangerous builds = 0
#print "${ts};${time};${comX};${med_x};${med_xu};${comY};${comZ}" append coords/coords_$t
clear
next i
jump restart_to_data.lmp
# -var l 2.8712 -var t 7100.0
#------------------------------------------------
shell mkdir coords
WARNING: Shell command 'mkdir' failed with error 'File exists' (../input.cpp:1292)
#------------------------------------------------
variable i loop 10000 #число рестартов
variable time_step equal 1000*$i
variable time_step equal 1000*6
#------------------------------------------------
read_restart ./restarts/$t/${time_step}
read_restart ./restarts/700/${time_step}
read_restart ./restarts/700/6000
  restoring atom style atomic from restart
  orthogonal box = (0 0 0) to (28.712 28.712 28.712)
  1 by 1 by 1 MPI processor grid
  pair style eam/fs stores no restart info
  2001 atoms
  read_restart CPU = 0.000286818 secs
pair_style      eam/fs
pair_coeff      * * ../Fe_mm.eam.fs Fe
Reading potential file ../Fe_mm.eam.fs with DATE: 2007-06-11
#dump		before_min all custom 1 dump/$ibefore_min.dump x y z
min_style cg
minimize 1e-9 1e-9 5000 5000
WARNING: Using 'neigh_modify every 1 delay 0 check yes' setting during minimization (../min.cpp:168)
Unused restart file peratom fix info:
  fix style: STORE, fix ID: msd_COMPUTE_STORE
Neighbor list info ...
  update every 1 steps, delay 0 steps, check yes
  max neighbors/atom: 2000, page size: 100000
  master list distance cutoff = 7.3
  ghost atom cutoff = 7.3
  binsize = 3.65, bins = 8 8 8
  1 neighbor lists, perpetual/occasional/extra = 1 0 0
  (1) pair eam/fs, perpetual
      attributes: half, newton on
      pair build: half/bin/atomonly/newton
      stencil: half/bin/3d/newton
      bin: standard
Per MPI rank memory allocation (min/avg/max) = 4.711 | 4.711 | 4.711 Mbytes
Step Temp E_pair E_mol TotEng Press 
    6000    691.44943   -8058.8839            0   -7880.1302   -1652.8746 
    6041    691.44943   -8242.1437            0     -8063.39   -20066.398 
Loop time of 0.416602 on 1 procs for 41 steps with 2001 atoms

83.2% CPU use with 1 MPI tasks x no OpenMP threads

Minimization stats:
  Stopping criterion = energy tolerance
  Energy initial, next-to-last, final = 
        -8058.88387529     -8242.14369454     -8242.14370249
  Force two-norm initial, final = 54.2458 0.0108865
  Force max component initial, final = 2.83076 0.00247918
  Final line search alpha, max atom move = 1 0.00247918
  Iterations, force evaluations = 41 75

MPI task timing breakdown:
Section |  min time  |  avg time  |  max time  |%varavg| %total
---------------------------------------------------------------
Pair    | 0.4106     | 0.4106     | 0.4106     |   0.0 | 98.56
Neigh   | 0          | 0          | 0          |   0.0 |  0.00
Comm    | 0.0021136  | 0.0021136  | 0.0021136  |   0.0 |  0.51
Output  | 0          | 0          | 0          |   0.0 |  0.00
Modify  | 0          | 0          | 0          |   0.0 |  0.00
Other   |            | 0.003892   |            |       |  0.93

Nlocal:    2001 ave 2001 max 2001 min
Histogram: 1 0 0 0 0 0 0 0 0 0
Nghost:    5286 ave 5286 max 5286 min
Histogram: 1 0 0 0 0 0 0 0 0 0
Neighs:    139775 ave 139775 max 139775 min
Histogram: 1 0 0 0 0 0 0 0 0 0

Total # of neighbors = 139775
Ave neighs/atom = 69.8526
Neighbor list builds = 0
Dangerous builds = 0
run 0
WARNING: No fixes defined, atoms won't move (../verlet.cpp:52)
Per MPI rank memory allocation (min/avg/max) = 3.588 | 3.588 | 3.588 Mbytes
Step Temp E_pair E_mol TotEng Press 
    6041    691.44943   -8242.1437            0     -8063.39   -20066.398 
Loop time of 9.53674e-07 on 1 procs for 0 steps with 2001 atoms

104.9% CPU use with 1 MPI tasks x no OpenMP threads

MPI task timing breakdown:
Section |  min time  |  avg time  |  max time  |%varavg| %total
---------------------------------------------------------------
Pair    | 0          | 0          | 0          |   0.0 |  0.00
Neigh   | 0          | 0          | 0          |   0.0 |  0.00
Comm    | 0          | 0          | 0          |   0.0 |  0.00
Output  | 0          | 0          | 0          |   0.0 |  0.00
Modify  | 0          | 0          | 0          |   0.0 |  0.00
Other   |            | 9.537e-07  |            |       |100.00

Nlocal:    2001 ave 2001 max 2001 min
Histogram: 1 0 0 0 0 0 0 0 0 0
Nghost:    5471 ave 5471 max 5471 min
Histogram: 1 0 0 0 0 0 0 0 0 0
Neighs:    136159 ave 136159 max 136159 min
Histogram: 1 0 0 0 0 0 0 0 0 0

Total # of neighbors = 136159
Ave neighs/atom = 68.0455
Neighbor list builds = 0
Dangerous builds = 0
compute cna all cna/atom 3.45
compute 2 all reduce sum c_cna
thermo_style    custom step temp pe c_2
#dump		after_min all custom 1 dump/$iafter_min.dump x y z c_cna
run 0
WARNING: No fixes defined, atoms won't move (../verlet.cpp:52)
Neighbor list info ...
  update every 1 steps, delay 10 steps, check yes
  max neighbors/atom: 2000, page size: 100000
  master list distance cutoff = 7.3
  ghost atom cutoff = 7.3
  binsize = 3.65, bins = 8 8 8
  2 neighbor lists, perpetual/occasional/extra = 1 1 0
  (1) pair eam/fs, perpetual
      attributes: half, newton on
      pair build: half/bin/atomonly/newton
      stencil: half/bin/3d/newton
      bin: standard
  (2) compute cna/atom, occasional
      attributes: full, newton on
      pair build: full/bin/atomonly
      stencil: full/bin/3d
      bin: standard
Per MPI rank memory allocation (min/avg/max) = 4.438 | 4.438 | 4.438 Mbytes
Step Temp PotEng c_2 
    6041    691.44943   -8242.1437         6039 
Loop time of 1.90735e-06 on 1 procs for 0 steps with 2001 atoms

52.4% CPU use with 1 MPI tasks x no OpenMP threads

MPI task timing breakdown:
Section |  min time  |  avg time  |  max time  |%varavg| %total
---------------------------------------------------------------
Pair    | 0          | 0          | 0          |   0.0 |  0.00
Neigh   | 0          | 0          | 0          |   0.0 |  0.00
Comm    | 0          | 0          | 0          |   0.0 |  0.00
Output  | 0          | 0          | 0          |   0.0 |  0.00
Modify  | 0          | 0          | 0          |   0.0 |  0.00
Other   |            | 1.907e-06  |            |       |100.00

Nlocal:    2001 ave 2001 max 2001 min
Histogram: 1 0 0 0 0 0 0 0 0 0
Nghost:    5471 ave 5471 max 5471 min
Histogram: 1 0 0 0 0 0 0 0 0 0
Neighs:    136159 ave 136159 max 136159 min
Histogram: 1 0 0 0 0 0 0 0 0 0
FullNghs:  272318 ave 272318 max 272318 min
Histogram: 1 0 0 0 0 0 0 0 0 0

Total # of neighbors = 272318
Ave neighs/atom = 136.091
Neighbor list builds = 0
Dangerous builds = 0
#------------------------------------------------
variable cnat atom "c_cna != 3.0"
group sia_surround variable cnat
18 atoms in group sia_surround
dump		after_min_sia sia_surround custom 1 dump/after_min_sia.dump x y z
dump_modify after_min_sia append yes
compute comV sia_surround com

compute xu sia_surround property/atom xu
compute med_xu sia_surround reduce ave c_xu
compute med_x sia_surround reduce ave x

compute yu sia_surround property/atom yu
compute med_yu sia_surround reduce ave c_yu
compute med_y sia_surround reduce ave y
thermo_style custom step temp pe c_comV[1] c_comV[2] c_comV[3]
run 0
WARNING: No fixes defined, atoms won't move (../verlet.cpp:52)
Per MPI rank memory allocation (min/avg/max) = 7.642 | 7.642 | 7.642 Mbytes
Step Temp PotEng c_comV[1] c_comV[2] c_comV[3] 
    6041    691.44943   -8242.1437     18.66142    18.661279    18.661274 
Loop time of 1.19209e-06 on 1 procs for 0 steps with 2001 atoms

83.9% CPU use with 1 MPI tasks x no OpenMP threads

MPI task timing breakdown:
Section |  min time  |  avg time  |  max time  |%varavg| %total
---------------------------------------------------------------
Pair    | 0          | 0          | 0          |   0.0 |  0.00
Neigh   | 0          | 0          | 0          |   0.0 |  0.00
Comm    | 0          | 0          | 0          |   0.0 |  0.00
Output  | 0          | 0          | 0          |   0.0 |  0.00
Modify  | 0          | 0          | 0          |   0.0 |  0.00
Other   |            | 1.192e-06  |            |       |100.00

Nlocal:    2001 ave 2001 max 2001 min
Histogram: 1 0 0 0 0 0 0 0 0 0
Nghost:    5471 ave 5471 max 5471 min
Histogram: 1 0 0 0 0 0 0 0 0 0
Neighs:    136159 ave 136159 max 136159 min
Histogram: 1 0 0 0 0 0 0 0 0 0
FullNghs:  272318 ave 272318 max 272318 min
Histogram: 1 0 0 0 0 0 0 0 0 0

Total # of neighbors = 272318
Ave neighs/atom = 136.091
Neighbor list builds = 0
Dangerous builds = 0
variable med_xu equal c_med_xu
variable med_x equal c_med_x

variable med_yu equal c_med_yu
variable med_y equal c_med_y

variable comX equal c_comV[1]
variable comY equal c_comV[2]
variable comZ equal c_comV[3]
variable time equal ${time_step}/1000
variable time equal 6000/1000
variable ts equal time
#dump		after_min_local all local 1 dump/$ilocal_after_min.dump c_comV[1] c_med_x c_med_xu
# fix useless all print 1 "${ts};${time};${comX};${med_x};${med_xu};${comY};${comZ};" append "useless" screen no title ''
# run 2
# print "${ts};${time};${comX};${med_x};${med_xu};${comY};${comZ}" append coords/coords_$t
# print "${time};${comX};${med_xu};${med_x};      ${comY};${med_xu};${med_x};     ${comZ}" append coords/coords_$t
print "${time};${comX};${comY};${comZ}" append coords/coords_$t
print "${time};${comX};${comY};${comZ}" append coords/coords_700
6;18.6614199077932;18.6612792284582;18.6612741940893
run 0
WARNING: No fixes defined, atoms won't move (../verlet.cpp:52)
Per MPI rank memory allocation (min/avg/max) = 7.642 | 7.642 | 7.642 Mbytes
Step Temp PotEng c_comV[1] c_comV[2] c_comV[3] 
    6041    691.44943   -8242.1437     18.66142    18.661279    18.661274 
Loop time of 9.53674e-07 on 1 procs for 0 steps with 2001 atoms

104.9% CPU use with 1 MPI tasks x no OpenMP threads

MPI task timing breakdown:
Section |  min time  |  avg time  |  max time  |%varavg| %total
---------------------------------------------------------------
Pair    | 0          | 0          | 0          |   0.0 |  0.00
Neigh   | 0          | 0          | 0          |   0.0 |  0.00
Comm    | 0          | 0          | 0          |   0.0 |  0.00
Output  | 0          | 0          | 0          |   0.0 |  0.00
Modify  | 0          | 0          | 0          |   0.0 |  0.00
Other   |            | 9.537e-07  |            |       |100.00

Nlocal:    2001 ave 2001 max 2001 min
Histogram: 1 0 0 0 0 0 0 0 0 0
Nghost:    5471 ave 5471 max 5471 min
Histogram: 1 0 0 0 0 0 0 0 0 0
Neighs:    136159 ave 136159 max 136159 min
Histogram: 1 0 0 0 0 0 0 0 0 0
FullNghs:  272318 ave 272318 max 272318 min
Histogram: 1 0 0 0 0 0 0 0 0 0

Total # of neighbors = 272318
Ave neighs/atom = 136.091
Neighbor list builds = 0
Dangerous builds = 0
#print "${ts};${time};${comX};${med_x};${med_xu};${comY};${comZ}" append coords/coords_$t
clear
next i
jump restart_to_data.lmp
# -var l 2.8712 -var t 7100.0
#------------------------------------------------
shell mkdir coords
WARNING: Shell command 'mkdir' failed with error 'File exists' (../input.cpp:1292)
#------------------------------------------------
variable i loop 10000 #число рестартов
variable time_step equal 1000*$i
variable time_step equal 1000*7
#------------------------------------------------
read_restart ./restarts/$t/${time_step}
read_restart ./restarts/700/${time_step}
read_restart ./restarts/700/7000
  restoring atom style atomic from restart
  orthogonal box = (0 0 0) to (28.712 28.712 28.712)
  1 by 1 by 1 MPI processor grid
  pair style eam/fs stores no restart info
  2001 atoms
  read_restart CPU = 0.000178099 secs
pair_style      eam/fs
pair_coeff      * * ../Fe_mm.eam.fs Fe
Reading potential file ../Fe_mm.eam.fs with DATE: 2007-06-11
#dump		before_min all custom 1 dump/$ibefore_min.dump x y z
min_style cg
minimize 1e-9 1e-9 5000 5000
WARNING: Using 'neigh_modify every 1 delay 0 check yes' setting during minimization (../min.cpp:168)
Unused restart file peratom fix info:
  fix style: STORE, fix ID: msd_COMPUTE_STORE
Neighbor list info ...
  update every 1 steps, delay 0 steps, check yes
  max neighbors/atom: 2000, page size: 100000
  master list distance cutoff = 7.3
  ghost atom cutoff = 7.3
  binsize = 3.65, bins = 8 8 8
  1 neighbor lists, perpetual/occasional/extra = 1 0 0
  (1) pair eam/fs, perpetual
      attributes: half, newton on
      pair build: half/bin/atomonly/newton
      stencil: half/bin/3d/newton
      bin: standard
Per MPI rank memory allocation (min/avg/max) = 4.713 | 4.713 | 4.713 Mbytes
Step Temp E_pair E_mol TotEng Press 
    7000    673.23094    -8054.173            0   -7880.1291     -756.547 
    7043    673.23094   -8242.1437            0   -8068.0999   -20278.923 
Loop time of 0.371509 on 1 procs for 43 steps with 2001 atoms

90.1% CPU use with 1 MPI tasks x no OpenMP threads

Minimization stats:
  Stopping criterion = energy tolerance
  Energy initial, next-to-last, final = 
         -8054.1729513     -8242.14370406     -8242.14370982
  Force two-norm initial, final = 55.3499 0.0101841
  Force max component initial, final = 2.88187 0.00326366
  Final line search alpha, max atom move = 1 0.00326366
  Iterations, force evaluations = 43 79

MPI task timing breakdown:
Section |  min time  |  avg time  |  max time  |%varavg| %total
---------------------------------------------------------------
Pair    | 0.36616    | 0.36616    | 0.36616    |   0.0 | 98.56
Neigh   | 0          | 0          | 0          |   0.0 |  0.00
Comm    | 0.0018816  | 0.0018816  | 0.0018816  |   0.0 |  0.51
Output  | 0          | 0          | 0          |   0.0 |  0.00
Modify  | 0          | 0          | 0          |   0.0 |  0.00
Other   |            | 0.003466   |            |       |  0.93

Nlocal:    2001 ave 2001 max 2001 min
Histogram: 1 0 0 0 0 0 0 0 0 0
Nghost:    5267 ave 5267 max 5267 min
Histogram: 1 0 0 0 0 0 0 0 0 0
Neighs:    139656 ave 139656 max 139656 min
Histogram: 1 0 0 0 0 0 0 0 0 0

Total # of neighbors = 139656
Ave neighs/atom = 69.7931
Neighbor list builds = 0
Dangerous builds = 0
run 0
WARNING: No fixes defined, atoms won't move (../verlet.cpp:52)
Per MPI rank memory allocation (min/avg/max) = 3.59 | 3.59 | 3.59 Mbytes
Step Temp E_pair E_mol TotEng Press 
    7043    673.23094   -8242.1437            0   -8068.0999   -20278.923 
Loop time of 9.53674e-07 on 1 procs for 0 steps with 2001 atoms

104.9% CPU use with 1 MPI tasks x no OpenMP threads

MPI task timing breakdown:
Section |  min time  |  avg time  |  max time  |%varavg| %total
---------------------------------------------------------------
Pair    | 0          | 0          | 0          |   0.0 |  0.00
Neigh   | 0          | 0          | 0          |   0.0 |  0.00
Comm    | 0          | 0          | 0          |   0.0 |  0.00
Output  | 0          | 0          | 0          |   0.0 |  0.00
Modify  | 0          | 0          | 0          |   0.0 |  0.00
Other   |            | 9.537e-07  |            |       |100.00

Nlocal:    2001 ave 2001 max 2001 min
Histogram: 1 0 0 0 0 0 0 0 0 0
Nghost:    5471 ave 5471 max 5471 min
Histogram: 1 0 0 0 0 0 0 0 0 0
Neighs:    136159 ave 136159 max 136159 min
Histogram: 1 0 0 0 0 0 0 0 0 0

Total # of neighbors = 136159
Ave neighs/atom = 68.0455
Neighbor list builds = 0
Dangerous builds = 0
compute cna all cna/atom 3.45
compute 2 all reduce sum c_cna
thermo_style    custom step temp pe c_2
#dump		after_min all custom 1 dump/$iafter_min.dump x y z c_cna
run 0
WARNING: No fixes defined, atoms won't move (../verlet.cpp:52)
Neighbor list info ...
  update every 1 steps, delay 10 steps, check yes
  max neighbors/atom: 2000, page size: 100000
  master list distance cutoff = 7.3
  ghost atom cutoff = 7.3
  binsize = 3.65, bins = 8 8 8
  2 neighbor lists, perpetual/occasional/extra = 1 1 0
  (1) pair eam/fs, perpetual
      attributes: half, newton on
      pair build: half/bin/atomonly/newton
      stencil: half/bin/3d/newton
      bin: standard
  (2) compute cna/atom, occasional
      attributes: full, newton on
      pair build: full/bin/atomonly
      stencil: full/bin/3d
      bin: standard
Per MPI rank memory allocation (min/avg/max) = 4.441 | 4.441 | 4.441 Mbytes
Step Temp PotEng c_2 
    7043    673.23094   -8242.1437         6039 
Loop time of 9.53674e-07 on 1 procs for 0 steps with 2001 atoms

104.9% CPU use with 1 MPI tasks x no OpenMP threads

MPI task timing breakdown:
Section |  min time  |  avg time  |  max time  |%varavg| %total
---------------------------------------------------------------
Pair    | 0          | 0          | 0          |   0.0 |  0.00
Neigh   | 0          | 0          | 0          |   0.0 |  0.00
Comm    | 0          | 0          | 0          |   0.0 |  0.00
Output  | 0          | 0          | 0          |   0.0 |  0.00
Modify  | 0          | 0          | 0          |   0.0 |  0.00
Other   |            | 9.537e-07  |            |       |100.00

Nlocal:    2001 ave 2001 max 2001 min
Histogram: 1 0 0 0 0 0 0 0 0 0
Nghost:    5471 ave 5471 max 5471 min
Histogram: 1 0 0 0 0 0 0 0 0 0
Neighs:    136159 ave 136159 max 136159 min
Histogram: 1 0 0 0 0 0 0 0 0 0
FullNghs:  272318 ave 272318 max 272318 min
Histogram: 1 0 0 0 0 0 0 0 0 0

Total # of neighbors = 272318
Ave neighs/atom = 136.091
Neighbor list builds = 0
Dangerous builds = 0
#------------------------------------------------
variable cnat atom "c_cna != 3.0"
group sia_surround variable cnat
18 atoms in group sia_surround
dump		after_min_sia sia_surround custom 1 dump/after_min_sia.dump x y z
dump_modify after_min_sia append yes
compute comV sia_surround com

compute xu sia_surround property/atom xu
compute med_xu sia_surround reduce ave c_xu
compute med_x sia_surround reduce ave x

compute yu sia_surround property/atom yu
compute med_yu sia_surround reduce ave c_yu
compute med_y sia_surround reduce ave y
thermo_style custom step temp pe c_comV[1] c_comV[2] c_comV[3]
run 0
WARNING: No fixes defined, atoms won't move (../verlet.cpp:52)
Per MPI rank memory allocation (min/avg/max) = 7.644 | 7.644 | 7.644 Mbytes
Step Temp PotEng c_comV[1] c_comV[2] c_comV[3] 
    7043    673.23094   -8242.1437    18.661314    18.661148    18.661218 
Loop time of 9.53674e-07 on 1 procs for 0 steps with 2001 atoms

104.9% CPU use with 1 MPI tasks x no OpenMP threads

MPI task timing breakdown:
Section |  min time  |  avg time  |  max time  |%varavg| %total
---------------------------------------------------------------
Pair    | 0          | 0          | 0          |   0.0 |  0.00
Neigh   | 0          | 0          | 0          |   0.0 |  0.00
Comm    | 0          | 0          | 0          |   0.0 |  0.00
Output  | 0          | 0          | 0          |   0.0 |  0.00
Modify  | 0          | 0          | 0          |   0.0 |  0.00
Other   |            | 9.537e-07  |            |       |100.00

Nlocal:    2001 ave 2001 max 2001 min
Histogram: 1 0 0 0 0 0 0 0 0 0
Nghost:    5471 ave 5471 max 5471 min
Histogram: 1 0 0 0 0 0 0 0 0 0
Neighs:    136159 ave 136159 max 136159 min
Histogram: 1 0 0 0 0 0 0 0 0 0
FullNghs:  272318 ave 272318 max 272318 min
Histogram: 1 0 0 0 0 0 0 0 0 0

Total # of neighbors = 272318
Ave neighs/atom = 136.091
Neighbor list builds = 0
Dangerous builds = 0
variable med_xu equal c_med_xu
variable med_x equal c_med_x

variable med_yu equal c_med_yu
variable med_y equal c_med_y

variable comX equal c_comV[1]
variable comY equal c_comV[2]
variable comZ equal c_comV[3]
variable time equal ${time_step}/1000
variable time equal 7000/1000
variable ts equal time
#dump		after_min_local all local 1 dump/$ilocal_after_min.dump c_comV[1] c_med_x c_med_xu
# fix useless all print 1 "${ts};${time};${comX};${med_x};${med_xu};${comY};${comZ};" append "useless" screen no title ''
# run 2
# print "${ts};${time};${comX};${med_x};${med_xu};${comY};${comZ}" append coords/coords_$t
# print "${time};${comX};${med_xu};${med_x};      ${comY};${med_xu};${med_x};     ${comZ}" append coords/coords_$t
print "${time};${comX};${comY};${comZ}" append coords/coords_$t
print "${time};${comX};${comY};${comZ}" append coords/coords_700
7;18.6613136832753;18.6611477818993;18.6612182339566
run 0
WARNING: No fixes defined, atoms won't move (../verlet.cpp:52)
Per MPI rank memory allocation (min/avg/max) = 7.644 | 7.644 | 7.644 Mbytes
Step Temp PotEng c_comV[1] c_comV[2] c_comV[3] 
    7043    673.23094   -8242.1437    18.661314    18.661148    18.661218 
Loop time of 9.53674e-07 on 1 procs for 0 steps with 2001 atoms

104.9% CPU use with 1 MPI tasks x no OpenMP threads

MPI task timing breakdown:
Section |  min time  |  avg time  |  max time  |%varavg| %total
---------------------------------------------------------------
Pair    | 0          | 0          | 0          |   0.0 |  0.00
Neigh   | 0          | 0          | 0          |   0.0 |  0.00
Comm    | 0          | 0          | 0          |   0.0 |  0.00
Output  | 0          | 0          | 0          |   0.0 |  0.00
Modify  | 0          | 0          | 0          |   0.0 |  0.00
Other   |            | 9.537e-07  |            |       |100.00

Nlocal:    2001 ave 2001 max 2001 min
Histogram: 1 0 0 0 0 0 0 0 0 0
Nghost:    5471 ave 5471 max 5471 min
Histogram: 1 0 0 0 0 0 0 0 0 0
Neighs:    136159 ave 136159 max 136159 min
Histogram: 1 0 0 0 0 0 0 0 0 0
FullNghs:  272318 ave 272318 max 272318 min
Histogram: 1 0 0 0 0 0 0 0 0 0

Total # of neighbors = 272318
Ave neighs/atom = 136.091
Neighbor list builds = 0
Dangerous builds = 0
#print "${ts};${time};${comX};${med_x};${med_xu};${comY};${comZ}" append coords/coords_$t
clear
next i
jump restart_to_data.lmp
# -var l 2.8712 -var t 7100.0
#------------------------------------------------
shell mkdir coords
WARNING: Shell command 'mkdir' failed with error 'File exists' (../input.cpp:1292)
#------------------------------------------------
variable i loop 10000 #число рестартов
variable time_step equal 1000*$i
variable time_step equal 1000*8
#------------------------------------------------
read_restart ./restarts/$t/${time_step}
read_restart ./restarts/700/${time_step}
read_restart ./restarts/700/8000
  restoring atom style atomic from restart
  orthogonal box = (0 0 0) to (28.712 28.712 28.712)
  1 by 1 by 1 MPI processor grid
  pair style eam/fs stores no restart info
  2001 atoms
  read_restart CPU = 0.000181913 secs
pair_style      eam/fs
pair_coeff      * * ../Fe_mm.eam.fs Fe
Reading potential file ../Fe_mm.eam.fs with DATE: 2007-06-11
#dump		before_min all custom 1 dump/$ibefore_min.dump x y z
min_style cg
minimize 1e-9 1e-9 5000 5000
WARNING: Using 'neigh_modify every 1 delay 0 check yes' setting during minimization (../min.cpp:168)
Unused restart file peratom fix info:
  fix style: STORE, fix ID: msd_COMPUTE_STORE
Neighbor list info ...
  update every 1 steps, delay 0 steps, check yes
  max neighbors/atom: 2000, page size: 100000
  master list distance cutoff = 7.3
  ghost atom cutoff = 7.3
  binsize = 3.65, bins = 8 8 8
  1 neighbor lists, perpetual/occasional/extra = 1 0 0
  (1) pair eam/fs, perpetual
      attributes: half, newton on
      pair build: half/bin/atomonly/newton
      stencil: half/bin/3d/newton
      bin: standard
Per MPI rank memory allocation (min/avg/max) = 4.714 | 4.714 | 4.714 Mbytes
Step Temp E_pair E_mol TotEng Press 
    8000    683.64963   -8056.8664            0   -7880.1291   -1096.4946 
    8041    683.64963   -8242.1437            0   -8065.4064   -20157.457 
Loop time of 0.323497 on 1 procs for 41 steps with 2001 atoms

97.8% CPU use with 1 MPI tasks x no OpenMP threads

Minimization stats:
  Stopping criterion = energy tolerance
  Energy initial, next-to-last, final = 
        -8056.86644717     -8242.14370441     -8242.14370849
  Force two-norm initial, final = 55.8141 0.00918456
  Force max component initial, final = 2.62651 0.00266146
  Final line search alpha, max atom move = 1 0.00266146
  Iterations, force evaluations = 41 76

MPI task timing breakdown:
Section |  min time  |  avg time  |  max time  |%varavg| %total
---------------------------------------------------------------
Pair    | 0.31799    | 0.31799    | 0.31799    |   0.0 | 98.30
Neigh   | 0          | 0          | 0          |   0.0 |  0.00
Comm    | 0.002058   | 0.002058   | 0.002058   |   0.0 |  0.64
Output  | 0          | 0          | 0          |   0.0 |  0.00
Modify  | 0          | 0          | 0          |   0.0 |  0.00
Other   |            | 0.003448   |            |       |  1.07

Nlocal:    2001 ave 2001 max 2001 min
Histogram: 1 0 0 0 0 0 0 0 0 0
Nghost:    5300 ave 5300 max 5300 min
Histogram: 1 0 0 0 0 0 0 0 0 0
Neighs:    139715 ave 139715 max 139715 min
Histogram: 1 0 0 0 0 0 0 0 0 0

Total # of neighbors = 139715
Ave neighs/atom = 69.8226
Neighbor list builds = 0
Dangerous builds = 0
run 0
WARNING: No fixes defined, atoms won't move (../verlet.cpp:52)
Per MPI rank memory allocation (min/avg/max) = 3.591 | 3.591 | 3.591 Mbytes
Step Temp E_pair E_mol TotEng Press 
    8041    683.64963   -8242.1437            0   -8065.4064   -20157.457 
Loop time of 9.53674e-07 on 1 procs for 0 steps with 2001 atoms

104.9% CPU use with 1 MPI tasks x no OpenMP threads

MPI task timing breakdown:
Section |  min time  |  avg time  |  max time  |%varavg| %total
---------------------------------------------------------------
Pair    | 0          | 0          | 0          |   0.0 |  0.00
Neigh   | 0          | 0          | 0          |   0.0 |  0.00
Comm    | 0          | 0          | 0          |   0.0 |  0.00
Output  | 0          | 0          | 0          |   0.0 |  0.00
Modify  | 0          | 0          | 0          |   0.0 |  0.00
Other   |            | 9.537e-07  |            |       |100.00

Nlocal:    2001 ave 2001 max 2001 min
Histogram: 1 0 0 0 0 0 0 0 0 0
Nghost:    5471 ave 5471 max 5471 min
Histogram: 1 0 0 0 0 0 0 0 0 0
Neighs:    136159 ave 136159 max 136159 min
Histogram: 1 0 0 0 0 0 0 0 0 0

Total # of neighbors = 136159
Ave neighs/atom = 68.0455
Neighbor list builds = 0
Dangerous builds = 0
compute cna all cna/atom 3.45
compute 2 all reduce sum c_cna
thermo_style    custom step temp pe c_2
#dump		after_min all custom 1 dump/$iafter_min.dump x y z c_cna
run 0
WARNING: No fixes defined, atoms won't move (../verlet.cpp:52)
Neighbor list info ...
  update every 1 steps, delay 10 steps, check yes
  max neighbors/atom: 2000, page size: 100000
  master list distance cutoff = 7.3
  ghost atom cutoff = 7.3
  binsize = 3.65, bins = 8 8 8
  2 neighbor lists, perpetual/occasional/extra = 1 1 0
  (1) pair eam/fs, perpetual
      attributes: half, newton on
      pair build: half/bin/atomonly/newton
      stencil: half/bin/3d/newton
      bin: standard
  (2) compute cna/atom, occasional
      attributes: full, newton on
      pair build: full/bin/atomonly
      stencil: full/bin/3d
      bin: standard
Per MPI rank memory allocation (min/avg/max) = 4.441 | 4.441 | 4.441 Mbytes
Step Temp PotEng c_2 
    8041    683.64963   -8242.1437         6039 
Loop time of 1.90735e-06 on 1 procs for 0 steps with 2001 atoms

104.9% CPU use with 1 MPI tasks x no OpenMP threads

MPI task timing breakdown:
Section |  min time  |  avg time  |  max time  |%varavg| %total
[...]
  Stopping criterion = energy tolerance
  Energy initial, next-to-last, final = 
        -8059.34226801     -8242.14369841     -8242.14370627
  Force two-norm initial, final = 54.6638 0.00946563
  Force max component initial, final = 2.60205 0.00230719
  Final line search alpha, max atom move = 1 0.00230719
  Iterations, force evaluations = 45 84

MPI task timing breakdown:
Section |  min time  |  avg time  |  max time  |%varavg| %total
---------------------------------------------------------------
Pair    | 0.34175    | 0.34175    | 0.34175    |   0.0 | 98.41
Neigh   | 0          | 0          | 0          |   0.0 |  0.00
Comm    | 0.0019538  | 0.0019538  | 0.0019538  |   0.0 |  0.56
Output  | 0          | 0          | 0          |   0.0 |  0.00
Modify  | 0          | 0          | 0          |   0.0 |  0.00
Other   |            | 0.003556   |            |       |  1.02

Nlocal:    2001 ave 2001 max 2001 min
Histogram: 1 0 0 0 0 0 0 0 0 0
Nghost:    5259 ave 5259 max 5259 min
Histogram: 1 0 0 0 0 0 0 0 0 0
Neighs:    139509 ave 139509 max 139509 min
Histogram: 1 0 0 0 0 0 0 0 0 0

Total # of neighbors = 139509
Ave neighs/atom = 69.7196
Neighbor list builds = 0
Dangerous builds = 0
run 0
WARNING: No fixes defined, atoms won't move (../verlet.cpp:52)
Per MPI rank memory allocation (min/avg/max) = 3.587 | 3.587 | 3.587 Mbytes
Step Temp E_pair E_mol TotEng Press 
   99045    693.22066   -8242.1437            0   -8062.9321   -20045.875 
Loop time of 9.53674e-07 on 1 procs for 0 steps with 2001 atoms

104.9% CPU use with 1 MPI tasks x no OpenMP threads

MPI task timing breakdown:
Section |  min time  |  avg time  |  max time  |%varavg| %total
---------------------------------------------------------------
Pair    | 0          | 0          | 0          |   0.0 |  0.00
Neigh   | 0          | 0          | 0          |   0.0 |  0.00
Comm    | 0          | 0          | 0          |   0.0 |  0.00
Output  | 0          | 0          | 0          |   0.0 |  0.00
Modify  | 0          | 0          | 0          |   0.0 |  0.00
Other   |            | 9.537e-07  |            |       |100.00

Nlocal:    2001 ave 2001 max 2001 min
Histogram: 1 0 0 0 0 0 0 0 0 0
Nghost:    5472 ave 5472 max 5472 min
Histogram: 1 0 0 0 0 0 0 0 0 0
Neighs:    136159 ave 136159 max 136159 min
Histogram: 1 0 0 0 0 0 0 0 0 0

Total # of neighbors = 136159
Ave neighs/atom = 68.0455
Neighbor list builds = 0
Dangerous builds = 0
compute cna all cna/atom 3.45
compute 2 all reduce sum c_cna
thermo_style    custom step temp pe c_2
#dump		after_min all custom 1 dump/$iafter_min.dump x y z c_cna
run 0
WARNING: No fixes defined, atoms won't move (../verlet.cpp:52)
Neighbor list info ...
  update every 1 steps, delay 10 steps, check yes
  max neighbors/atom: 2000, page size: 100000
  master list distance cutoff = 7.3
  ghost atom cutoff = 7.3
  binsize = 3.65, bins = 8 8 8
  2 neighbor lists, perpetual/occasional/extra = 1 1 0
  (1) pair eam/fs, perpetual
      attributes: half, newton on
      pair build: half/bin/atomonly/newton
      stencil: half/bin/3d/newton
      bin: standard
  (2) compute cna/atom, occasional
      attributes: full, newton on
      pair build: full/bin/atomonly
      stencil: full/bin/3d
      bin: standard
Per MPI rank memory allocation (min/avg/max) = 4.438 | 4.438 | 4.438 Mbytes
Step Temp PotEng c_2 
   99045    693.22066   -8242.1437         6039 
Loop time of 9.53674e-07 on 1 procs for 0 steps with 2001 atoms

209.7% CPU use with 1 MPI tasks x no OpenMP threads

MPI task timing breakdown:
Section |  min time  |  avg time  |  max time  |%varavg| %total
---------------------------------------------------------------
Pair    | 0          | 0          | 0          |   0.0 |  0.00
Neigh   | 0          | 0          | 0          |   0.0 |  0.00
Comm    | 0          | 0          | 0          |   0.0 |  0.00
Output  | 0          | 0          | 0          |   0.0 |  0.00
Modify  | 0          | 0          | 0          |   0.0 |  0.00
Other   |            | 9.537e-07  |            |       |100.00

Nlocal:    2001 ave 2001 max 2001 min
Histogram: 1 0 0 0 0 0 0 0 0 0
Nghost:    5472 ave 5472 max 5472 min
Histogram: 1 0 0 0 0 0 0 0 0 0
Neighs:    136159 ave 136159 max 136159 min
Histogram: 1 0 0 0 0 0 0 0 0 0
FullNghs:  272318 ave 272318 max 272318 min
Histogram: 1 0 0 0 0 0 0 0 0 0

Total # of neighbors = 272318
Ave neighs/atom = 136.091
Neighbor list builds = 0
Dangerous builds = 0
#------------------------------------------------
variable cnat atom "c_cna != 3.0"
group sia_surround variable cnat
18 atoms in group sia_surround
dump		after_min_sia sia_surround custom 1 dump/after_min_sia.dump x y z
dump_modify after_min_sia append yes
compute comV sia_surround com

compute xu sia_surround property/atom xu
compute med_xu sia_surround reduce ave c_xu
compute med_x sia_surround reduce ave x

compute yu sia_surround property/atom yu
compute med_yu sia_surround reduce ave c_yu
compute med_y sia_surround reduce ave y
thermo_style custom step temp pe c_comV[1] c_comV[2] c_comV[3]
run 0
WARNING: No fixes defined, atoms won't move (../verlet.cpp:52)
Per MPI rank memory allocation (min/avg/max) = 7.642 | 7.642 | 7.642 Mbytes
Step Temp PotEng c_comV[1] c_comV[2] c_comV[3] 
   99045    693.22066   -8242.1437    7.1823641    10.051706    19.294743 
Loop time of 1.19209e-06 on 1 procs for 0 steps with 2001 atoms

83.9% CPU use with 1 MPI tasks x no OpenMP threads

MPI task timing breakdown:
Section |  min time  |  avg time  |  max time  |%varavg| %total
---------------------------------------------------------------
Pair    | 0          | 0          | 0          |   0.0 |  0.00
Neigh   | 0          | 0          | 0          |   0.0 |  0.00
Comm    | 0          | 0          | 0          |   0.0 |  0.00
Output  | 0          | 0          | 0          |   0.0 |  0.00
Modify  | 0          | 0          | 0          |   0.0 |  0.00
Other   |            | 1.192e-06  |            |       |100.00

Nlocal:    2001 ave 2001 max 2001 min
Histogram: 1 0 0 0 0 0 0 0 0 0
Nghost:    5472 ave 5472 max 5472 min
Histogram: 1 0 0 0 0 0 0 0 0 0
Neighs:    136159 ave 136159 max 136159 min
Histogram: 1 0 0 0 0 0 0 0 0 0
FullNghs:  272318 ave 272318 max 272318 min
Histogram: 1 0 0 0 0 0 0 0 0 0

Total # of neighbors = 272318
Ave neighs/atom = 136.091
Neighbor list builds = 0
Dangerous builds = 0
variable med_xu equal c_med_xu
variable med_x equal c_med_x

variable med_yu equal c_med_yu
variable med_y equal c_med_y

variable comX equal c_comV[1]
variable comY equal c_comV[2]
variable comZ equal c_comV[3]
variable time equal ${time_step}/1000
variable time equal 99000/1000
variable ts equal time
#dump		after_min_local all local 1 dump/$ilocal_after_min.dump c_comV[1] c_med_x c_med_xu
# fix useless all print 1 "${ts};${time};${comX};${med_x};${med_xu};${comY};${comZ};" append "useless" screen no title ''
# run 2
# print "${ts};${time};${comX};${med_x};${med_xu};${comY};${comZ}" append coords/coords_$t
# print "${time};${comX};${med_xu};${med_x};      ${comY};${med_xu};${med_x};     ${comZ}" append coords/coords_$t
print "${time};${comX};${comY};${comZ}" append coords/coords_$t
print "${time};${comX};${comY};${comZ}" append coords/coords_700
99;7.18236405344096;10.0517063851958;19.2947432658464
run 0
WARNING: No fixes defined, atoms won't move (../verlet.cpp:52)
Per MPI rank memory allocation (min/avg/max) = 7.642 | 7.642 | 7.642 Mbytes
Step Temp PotEng c_comV[1] c_comV[2] c_comV[3] 
   99045    693.22066   -8242.1437    7.1823641    10.051706    19.294743 
Loop time of 9.53674e-07 on 1 procs for 0 steps with 2001 atoms

209.7% CPU use with 1 MPI tasks x no OpenMP threads

MPI task timing breakdown:
Section |  min time  |  avg time  |  max time  |%varavg| %total
---------------------------------------------------------------
Pair    | 0          | 0          | 0          |   0.0 |  0.00
Neigh   | 0          | 0          | 0          |   0.0 |  0.00
Comm    | 0          | 0          | 0          |   0.0 |  0.00
Output  | 0          | 0          | 0          |   0.0 |  0.00
Modify  | 0          | 0          | 0          |   0.0 |  0.00
Other   |            | 9.537e-07  |            |       |100.00

Nlocal:    2001 ave 2001 max 2001 min
Histogram: 1 0 0 0 0 0 0 0 0 0
Nghost:    5472 ave 5472 max 5472 min
Histogram: 1 0 0 0 0 0 0 0 0 0
Neighs:    136159 ave 136159 max 136159 min
Histogram: 1 0 0 0 0 0 0 0 0 0
FullNghs:  272318 ave 272318 max 272318 min
Histogram: 1 0 0 0 0 0 0 0 0 0

Total # of neighbors = 272318
Ave neighs/atom = 136.091
Neighbor list builds = 0
Dangerous builds = 0
#print "${ts};${time};${comX};${med_x};${med_xu};${comY};${comZ}" append coords/coords_$t
clear
next i
jump restart_to_data.lmp
# -var l 2.8712 -var t 7100.0
#------------------------------------------------
shell mkdir coords
WARNING: Shell command 'mkdir' failed with error 'File exists' (../input.cpp:1292)
#------------------------------------------------
variable i loop 10000 #число рестартов
variable time_step equal 1000*$i
variable time_step equal 1000*100
#------------------------------------------------
read_restart ./restarts/$t/${time_step}
read_restart ./restarts/700/${time_step}
read_restart ./restarts/700/100000
  restoring atom style atomic from restart
  orthogonal box = (0 0 0) to (28.712 28.712 28.712)
  1 by 1 by 1 MPI processor grid
  pair style eam/fs stores no restart info
  2001 atoms
  read_restart CPU = 0.00138998 secs
pair_style      eam/fs
pair_coeff      * * ../Fe_mm.eam.fs Fe
Reading potential file ../Fe_mm.eam.fs with DATE: 2007-06-11
#dump		before_min all custom 1 dump/$ibefore_min.dump x y z
min_style cg
minimize 1e-9 1e-9 5000 5000
WARNING: Using 'neigh_modify every 1 delay 0 check yes' setting during minimization (../min.cpp:168)
Unused restart file peratom fix info:
  fix style: STORE, fix ID: msd_COMPUTE_STORE
Neighbor list info ...
  update every 1 steps, delay 0 steps, check yes
  max neighbors/atom: 2000, page size: 100000
  master list distance cutoff = 7.3
  ghost atom cutoff = 7.3
  binsize = 3.65, bins = 8 8 8
  1 neighbor lists, perpetual/occasional/extra = 1 0 0
  (1) pair eam/fs, perpetual
      attributes: half, newton on
      pair build: half/bin/atomonly/newton
      stencil: half/bin/3d/newton
      bin: standard
Per MPI rank memory allocation (min/avg/max) = 4.709 | 4.709 | 4.709 Mbytes
Step Temp E_pair E_mol TotEng Press 
  100000    668.63046   -8052.9831            0   -7880.1285   -1273.8515 
  100038    668.63046   -8242.1437            0   -8069.2892   -20332.779 
Loop time of 0.292335 on 1 procs for 38 steps with 2001 atoms

99.4% CPU use with 1 MPI tasks x no OpenMP threads

Minimization stats:
  Stopping criterion = energy tolerance
  Energy initial, next-to-last, final = 
        -8052.98306343     -8242.14369508     -8242.14370314
  Force two-norm initial, final = 54.7681 0.0112064
  Force max component initial, final = 2.6061 0.0032456
  Final line search alpha, max atom move = 1 0.0032456
  Iterations, force evaluations = 38 71

MPI task timing breakdown:
Section |  min time  |  avg time  |  max time  |%varavg| %total
---------------------------------------------------------------
Pair    | 0.28793    | 0.28793    | 0.28793    |   0.0 | 98.49
Neigh   | 0          | 0          | 0          |   0.0 |  0.00
Comm    | 0.0015123  | 0.0015123  | 0.0015123  |   0.0 |  0.52
Output  | 0          | 0          | 0          |   0.0 |  0.00
Modify  | 0          | 0          | 0          |   0.0 |  0.00
Other   |            | 0.002894   |            |       |  0.99

Nlocal:    2001 ave 2001 max 2001 min
Histogram: 1 0 0 0 0 0 0 0 0 0
Nghost:    5236 ave 5236 max 5236 min
Histogram: 1 0 0 0 0 0 0 0 0 0
Neighs:    139829 ave 139829 max 139829 min
Histogram: 1 0 0 0 0 0 0 0 0 0

Total # of neighbors = 139829
Ave neighs/atom = 69.8796
Neighbor list builds = 0
Dangerous builds = 0
run 0
WARNING: No fixes defined, atoms won't move (../verlet.cpp:52)
Per MPI rank memory allocation (min/avg/max) = 3.585 | 3.585 | 3.585 Mbytes
Step Temp E_pair E_mol TotEng Press 
  100038    668.63046   -8242.1437            0   -8069.2892   -20332.779 
Loop time of 9.53674e-07 on 1 procs for 0 steps with 2001 atoms

104.9% CPU use with 1 MPI tasks x no OpenMP threads

MPI task timing breakdown:
Section |  min time  |  avg time  |  max time  |%varavg| %total
---------------------------------------------------------------
Pair    | 0          | 0          | 0          |   0.0 |  0.00
Neigh   | 0          | 0          | 0          |   0.0 |  0.00
Comm    | 0          | 0          | 0          |   0.0 |  0.00
Output  | 0          | 0          | 0          |   0.0 |  0.00
Modify  | 0          | 0          | 0          |   0.0 |  0.00
Other   |            | 9.537e-07  |            |       |100.00

Nlocal:    2001 ave 2001 max 2001 min
Histogram: 1 0 0 0 0 0 0 0 0 0
Nghost:    5472 ave 5472 max 5472 min
Histogram: 1 0 0 0 0 0 0 0 0 0
Neighs:    136159 ave 136159 max 136159 min
Histogram: 1 0 0 0 0 0 0 0 0 0

Total # of neighbors = 136159
Ave neighs/atom = 68.0455
Neighbor list builds = 0
Dangerous builds = 0
compute cna all cna/atom 3.45
compute 2 all reduce sum c_cna
thermo_style    custom step temp pe c_2
#dump		after_min all custom 1 dump/$iafter_min.dump x y z c_cna
run 0
WARNING: No fixes defined, atoms won't move (../verlet.cpp:52)
Neighbor list info ...
  update every 1 steps, delay 10 steps, check yes
  max neighbors/atom: 2000, page size: 100000
  master list distance cutoff = 7.3
  ghost atom cutoff = 7.3
  binsize = 3.65, bins = 8 8 8
  2 neighbor lists, perpetual/occasional/extra = 1 1 0
  (1) pair eam/fs, perpetual
      attributes: half, newton on
      pair build: half/bin/atomonly/newton
      stencil: half/bin/3d/newton
      bin: standard
  (2) compute cna/atom, occasional
      attributes: full, newton on
      pair build: full/bin/atomonly
      stencil: full/bin/3d
      bin: standard
Per MPI rank memory allocation (min/avg/max) = 4.436 | 4.436 | 4.436 Mbytes
Step Temp PotEng c_2 
  100038    668.63046   -8242.1437         6039 
Loop time of 1.90735e-06 on 1 procs for 0 steps with 2001 atoms

104.9% CPU use with 1 MPI tasks x no OpenMP threads

MPI task timing breakdown:
Section |  min time  |  avg time  |  max time  |%varavg| %total
---------------------------------------------------------------
Pair    | 0          | 0          | 0          |   0.0 |  0.00
Neigh   | 0          | 0          | 0          |   0.0 |  0.00
Comm    | 0          | 0          | 0          |   0.0 |  0.00
Output  | 0          | 0          | 0          |   0.0 |  0.00
Modify  | 0          | 0          | 0          |   0.0 |  0.00
Other   |            | 1.907e-06  |            |       |100.00

Nlocal:    2001 ave 2001 max 2001 min
Histogram: 1 0 0 0 0 0 0 0 0 0
Nghost:    5472 ave 5472 max 5472 min
Histogram: 1 0 0 0 0 0 0 0 0 0
Neighs:    136159 ave 136159 max 136159 min
Histogram: 1 0 0 0 0 0 0 0 0 0
FullNghs:  272318 ave 272318 max 272318 min
Histogram: 1 0 0 0 0 0 0 0 0 0

Total # of neighbors = 272318
Ave neighs/atom = 136.091
Neighbor list builds = 0
Dangerous builds = 0
#------------------------------------------------
variable cnat atom "c_cna != 3.0"
group sia_surround variable cnat
18 atoms in group sia_surround
dump		after_min_sia sia_surround custom 1 dump/after_min_sia.dump x y z
dump_modify after_min_sia append yes
compute comV sia_surround com

compute xu sia_surround property/atom xu
compute med_xu sia_surround reduce ave c_xu
compute med_x sia_surround reduce ave x

compute yu sia_surround property/atom yu
compute med_yu sia_surround reduce ave c_yu
compute med_y sia_surround reduce ave y
thermo_style custom step temp pe c_comV[1] c_comV[2] c_comV[3]
run 0
WARNING: No fixes defined, atoms won't move (../verlet.cpp:52)
Per MPI rank memory allocation (min/avg/max) = 7.64 | 7.64 | 7.64 Mbytes
Step Temp PotEng c_comV[1] c_comV[2] c_comV[3] 
  100038    668.63046   -8242.1437    8.6173091    11.486675    9.5637692 
Loop time of 9.53674e-07 on 1 procs for 0 steps with 2001 atoms

104.9% CPU use with 1 MPI tasks x no OpenMP threads

MPI task timing breakdown:
Section |  min time  |  avg time  |  max time  |%varavg| %total
---------------------------------------------------------------
Pair    | 0          | 0          | 0          |   0.0 |  0.00
Neigh   | 0          | 0          | 0          |   0.0 |  0.00
Comm    | 0          | 0          | 0          |   0.0 |  0.00
Output  | 0          | 0          | 0          |   0.0 |  0.00
Modify  | 0          | 0          | 0          |   0.0 |  0.00
Other   |            | 9.537e-07  |            |       |100.00

Nlocal:    2001 ave 2001 max 2001 min
Histogram: 1 0 0 0 0 0 0 0 0 0
Nghost:    5472 ave 5472 max 5472 min
Histogram: 1 0 0 0 0 0 0 0 0 0
Neighs:    136159 ave 136159 max 136159 min
Histogram: 1 0 0 0 0 0 0 0 0 0
FullNghs:  272318 ave 272318 max 272318 min
Histogram: 1 0 0 0 0 0 0 0 0 0

Total # of neighbors = 272318
Ave neighs/atom = 136.091
Neighbor list builds = 0
Dangerous builds = 0
variable med_xu equal c_med_xu
variable med_x equal c_med_x

variable med_yu equal c_med_yu
variable med_y equal c_med_y

variable comX equal c_comV[1]
variable comY equal c_comV[2]
variable comZ equal c_comV[3]
variable time equal ${time_step}/1000
variable time equal 100000/1000
variable ts equal time
#dump		after_min_local all local 1 dump/$ilocal_after_min.dump c_comV[1] c_med_x c_med_xu
# fix useless all print 1 "${ts};${time};${comX};${med_x};${med_xu};${comY};${comZ};" append "useless" screen no title ''
# run 2
# print "${ts};${time};${comX};${med_x};${med_xu};${comY};${comZ}" append coords/coords_$t
# print "${time};${comX};${med_xu};${med_x};      ${comY};${med_xu};${med_x};     ${comZ}" append coords/coords_$t
print "${time};${comX};${comY};${comZ}" append coords/coords_$t
print "${time};${comX};${comY};${comZ}" append coords/coords_700
100;8.61730912484428;11.4866749384808;9.56376918377121
run 0
WARNING: No fixes defined, atoms won't move (../verlet.cpp:52)
Per MPI rank memory allocation (min/avg/max) = 7.64 | 7.64 | 7.64 Mbytes
Step Temp PotEng c_comV[1] c_comV[2] c_comV[3] 
  100038    668.63046   -8242.1437    8.6173091    11.486675    9.5637692 
Loop time of 9.53674e-07 on 1 procs for 0 steps with 2001 atoms

104.9% CPU use with 1 MPI tasks x no OpenMP threads

MPI task timing breakdown:
Section |  min time  |  avg time  |  max time  |%varavg| %total
---------------------------------------------------------------
Pair    | 0          | 0          | 0          |   0.0 |  0.00
Neigh   | 0          | 0          | 0          |   0.0 |  0.00
Comm    | 0          | 0          | 0          |   0.0 |  0.00
Output  | 0          | 0          | 0          |   0.0 |  0.00
Modify  | 0          | 0          | 0          |   0.0 |  0.00
Other   |            | 9.537e-07  |            |       |100.00

Nlocal:    2001 ave 2001 max 2001 min
Histogram: 1 0 0 0 0 0 0 0 0 0
Nghost:    5472 ave 5472 max 5472 min
Histogram: 1 0 0 0 0 0 0 0 0 0
Neighs:    136159 ave 136159 max 136159 min
Histogram: 1 0 0 0 0 0 0 0 0 0
FullNghs:  272318 ave 272318 max 272318 min
Histogram: 1 0 0 0 0 0 0 0 0 0

Total # of neighbors = 272318
Ave neighs/atom = 136.091
Neighbor list builds = 0
Dangerous builds = 0
#print "${ts};${time};${comX};${med_x};${med_xu};${comY};${comZ}" append coords/coords_$t
clear
next i
jump restart_to_data.lmp
# -var l 2.8712 -var t 7100.0
#------------------------------------------------
shell mkdir coords
WARNING: Shell command 'mkdir' failed with error 'File exists' (../input.cpp:1292)
#------------------------------------------------
variable i loop 10000 #число рестартов
variable time_step equal 1000*$i
variable time_step equal 1000*101
#------------------------------------------------
read_restart ./restarts/$t/${time_step}
read_restart ./restarts/700/${time_step}
read_restart ./restarts/700/101000
ERROR on proc 0: Cannot open restart file ./restarts/700/101000 (../read_restart.cpp:143)
Last command: read_restart ./restarts/$t/${time_step}
