LAMMPS (7 Aug 2019)
# -l none -var l 2.8712 -var t 700
#------------------------------------------------
shell mkdir diff_data
WARNING: Shell command 'mkdir' failed with error 'File exists' (../input.cpp:1292)
shell mkdir diff_data/$t
ERROR on proc 0: Substitution for illegal variable t (../input.cpp:553)
Last command: shell mkdir diff_data/$t
