LAMMPS (7 Aug 2019)
# -var l 2.8712 -var t 700
# -var l 2.8947 -var t 1300
# -var l 2.9151 -var t 1700
#------------------------------------------------
variable i loop 0 10000 #число рестартов
variable time_step equal 1000*$i
variable time_step equal 1000*0
variable time_step_previous equal 1000*$i-1000
variable time_step_previous equal 1000*0-1000
# shell rm ./data/restarts_$t/${time_step_previous}
shell while [ ! -f ./data/restarts_$t/${time_step} ]; do sleep 0.5; done  #ждет, пока не создастся след рестарт
shell while [ ! -f ./data/restarts_1700/${time_step} ]; do sleep 0.5; done  
shell while [ ! -f ./data/restarts_1700/0 ]; do sleep 0.5; done  
# variable time_step_previous equal 1000*$i-1000
#------------------------------------------------
read_restart ./data/restarts_$t/${time_step}
read_restart ./data/restarts_1700/${time_step}
read_restart ./data/restarts_1700/0
  restoring atom style atomic from restart
  orthogonal box = (0 0 0) to (29.151 29.151 29.151)
  1 by 1 by 1 MPI processor grid
  pair style eam/fs stores no restart info
  2001 atoms
  read_restart CPU = 0.000518084 secs
pair_style      eam/fs
pair_coeff      * * ../Fe_mm.eam.fs Fe
Reading potential file ../Fe_mm.eam.fs with DATE: 2007-06-11
min_style cg
minimize 1e-9 1e-9 5000 5000
WARNING: Using 'neigh_modify every 1 delay 0 check yes' setting during minimization (../min.cpp:168)
Unused restart file peratom fix info:
  fix style: STORE, fix ID: msd_COMPUTE_STORE
Neighbor list info ...
  update every 1 steps, delay 0 steps, check yes
  max neighbors/atom: 2000, page size: 100000
  master list distance cutoff = 7.3
  ghost atom cutoff = 7.3
  binsize = 3.65, bins = 8 8 8
  1 neighbor lists, perpetual/occasional/extra = 1 0 0
  (1) pair eam/fs, perpetual
      attributes: half, newton on
      pair build: half/bin/atomonly/newton
      stencil: half/bin/3d/newton
      bin: standard
Per MPI rank memory allocation (min/avg/max) = 4.688 | 4.688 | 4.688 Mbytes
Step Temp E_pair E_mol TotEng Press 
       0    1605.9189   -7732.6171            0   -7317.4545   -1091.9474 
      51    1605.9189   -8196.5977            0   -7781.4351   -82874.727 
Loop time of 0.373404 on 1 procs for 51 steps with 2001 atoms

99.6% CPU use with 1 MPI tasks x no OpenMP threads

Minimization stats:
  Stopping criterion = energy tolerance
  Energy initial, next-to-last, final = 
        -7732.61712954     -8196.59773841     -8196.59774217
  Force two-norm initial, final = 81.4129 0.00871616
  Force max component initial, final = 3.89198 0.00384162
  Final line search alpha, max atom move = 1 0.00384162
  Iterations, force evaluations = 51 88

MPI task timing breakdown:
Section |  min time  |  avg time  |  max time  |%varavg| %total
---------------------------------------------------------------
Pair    | 0.36747    | 0.36747    | 0.36747    |   0.0 | 98.41
Neigh   | 0          | 0          | 0          |   0.0 |  0.00
Comm    | 0.0019751  | 0.0019751  | 0.0019751  |   0.0 |  0.53
Output  | 0          | 0          | 0          |   0.0 |  0.00
Modify  | 0          | 0          | 0          |   0.0 |  0.00
Other   |            | 0.00396    |            |       |  1.06

Nlocal:    2001 ave 2001 max 2001 min
Histogram: 1 0 0 0 0 0 0 0 0 0
Nghost:    4746 ave 4746 max 4746 min
Histogram: 1 0 0 0 0 0 0 0 0 0
Neighs:    133857 ave 133857 max 133857 min
Histogram: 1 0 0 0 0 0 0 0 0 0

Total # of neighbors = 133857
Ave neighs/atom = 66.8951
Neighbor list builds = 0
Dangerous builds = 0
compute cna all cna/atom 3.45
compute 2 all reduce sum c_cna
thermo_style    custom step temp pe c_2
run 0
WARNING: No fixes defined, atoms won't move (../verlet.cpp:52)
Neighbor list info ...
  update every 1 steps, delay 10 steps, check yes
  max neighbors/atom: 2000, page size: 100000
  master list distance cutoff = 7.3
  ghost atom cutoff = 7.3
  binsize = 3.65, bins = 8 8 8
  2 neighbor lists, perpetual/occasional/extra = 1 1 0
  (1) pair eam/fs, perpetual
      attributes: half, newton on
      pair build: half/bin/atomonly/newton
      stencil: half/bin/3d/newton
      bin: standard
  (2) compute cna/atom, occasional
      attributes: full, newton on
      pair build: full/bin/atomonly
      stencil: full/bin/3d
      bin: standard
Per MPI rank memory allocation (min/avg/max) = 4.419 | 4.419 | 4.419 Mbytes
Step Temp PotEng c_2 
      51    1605.9189   -8196.5977         6039 
Loop time of 9.53674e-07 on 1 procs for 0 steps with 2001 atoms

104.9% CPU use with 1 MPI tasks x no OpenMP threads

MPI task timing breakdown:
Section |  min time  |  avg time  |  max time  |%varavg| %total
---------------------------------------------------------------
Pair    | 0          | 0          | 0          |   0.0 |  0.00
Neigh   | 0          | 0          | 0          |   0.0 |  0.00
Comm    | 0          | 0          | 0          |   0.0 |  0.00
Output  | 0          | 0          | 0          |   0.0 |  0.00
Modify  | 0          | 0          | 0          |   0.0 |  0.00
Other   |            | 9.537e-07  |            |       |100.00

Nlocal:    2001 ave 2001 max 2001 min
Histogram: 1 0 0 0 0 0 0 0 0 0
Nghost:    5460 ave 5460 max 5460 min
Histogram: 1 0 0 0 0 0 0 0 0 0
Neighs:    136111 ave 136111 max 136111 min
Histogram: 1 0 0 0 0 0 0 0 0 0
FullNghs:  272222 ave 272222 max 272222 min
Histogram: 1 0 0 0 0 0 0 0 0 0

Total # of neighbors = 272222
Ave neighs/atom = 136.043
Neighbor list builds = 0
Dangerous builds = 0
#------------------------------------------------
variable cnat atom "c_cna != 3.0"
group sia_surround variable cnat
18 atoms in group sia_surround
dump		after_min_sia sia_surround custom 1 ./data/dumps_$t/surr_sia.dump x y z
dump		after_min_sia sia_surround custom 1 ./data/dumps_1700/surr_sia.dump x y z
dump_modify after_min_sia append yes

compute comV sia_surround com
compute med_x sia_surround reduce ave x
compute med_y sia_surround reduce ave y
compute med_z sia_surround reduce ave z
thermo_style custom step temp pe c_comV[1] c_comV[2] c_comV[3] c_med_x c_med_y c_med_z
run 0
WARNING: No fixes defined, atoms won't move (../verlet.cpp:52)
Per MPI rank memory allocation (min/avg/max) = 7.623 | 7.623 | 7.623 Mbytes
Step Temp PotEng c_comV[1] c_comV[2] c_comV[3] c_med_x c_med_y c_med_z 
      51    1605.9189   -8196.5977    21.860413    10.205483    10.205605    21.860413    10.205483    10.205605 
Loop time of 1.19209e-06 on 1 procs for 0 steps with 2001 atoms

0.0% CPU use with 1 MPI tasks x no OpenMP threads

MPI task timing breakdown:
Section |  min time  |  avg time  |  max time  |%varavg| %total
---------------------------------------------------------------
Pair    | 0          | 0          | 0          |   0.0 |  0.00
Neigh   | 0          | 0          | 0          |   0.0 |  0.00
Comm    | 0          | 0          | 0          |   0.0 |  0.00
Output  | 0          | 0          | 0          |   0.0 |  0.00
Modify  | 0          | 0          | 0          |   0.0 |  0.00
Other   |            | 1.192e-06  |            |       |100.00

Nlocal:    2001 ave 2001 max 2001 min
Histogram: 1 0 0 0 0 0 0 0 0 0
Nghost:    5460 ave 5460 max 5460 min
Histogram: 1 0 0 0 0 0 0 0 0 0
Neighs:    136111 ave 136111 max 136111 min
Histogram: 1 0 0 0 0 0 0 0 0 0
FullNghs:  272222 ave 272222 max 272222 min
Histogram: 1 0 0 0 0 0 0 0 0 0

Total # of neighbors = 272222
Ave neighs/atom = 136.043
Neighbor list builds = 0
Dangerous builds = 0
variable comX equal c_comV[1]
variable comY equal c_comV[2]
variable comZ equal c_comV[3]
variable med_x equal c_med_x
variable med_y equal c_med_y
variable med_z equal c_med_z
variable time equal ${time_step}/1000
variable time equal 0/1000
variable ts equal time
print "${time};${comX};${comY};${comZ}" append ./data/other_$t/coords
print "${time};${comX};${comY};${comZ}" append ./data/other_1700/coords
0;21.8604128090037;10.2054825085583;10.2056047167998
print "${time};${med_x};${med_y};${med_z}" append ./data/other_$t/unw_coords
print "${time};${med_x};${med_y};${med_z}" append ./data/other_1700/unw_coords
0;21.8604128090037;10.2054825085583;10.2056047167998
clear
shell rm ./data/restarts_$t/${time_step}
shell rm ./data/restarts_1700/${time_step}
shell rm ./data/restarts_1700/0
next i
jump r2d.lmp
# -var l 2.8712 -var t 700
# -var l 2.8947 -var t 1300
# -var l 2.9151 -var t 1700
#------------------------------------------------
variable i loop 0 10000 #число рестартов
variable time_step equal 1000*$i
variable time_step equal 1000*1
variable time_step_previous equal 1000*$i-1000
variable time_step_previous equal 1000*1-1000
# shell rm ./data/restarts_$t/${time_step_previous}
shell while [ ! -f ./data/restarts_$t/${time_step} ]; do sleep 0.5; done  #ждет, пока не создастся след рестарт
shell while [ ! -f ./data/restarts_1700/${time_step} ]; do sleep 0.5; done  
shell while [ ! -f ./data/restarts_1700/1000 ]; do sleep 0.5; done  
# variable time_step_previous equal 1000*$i-1000
#------------------------------------------------
read_restart ./data/restarts_$t/${time_step}
read_restart ./data/restarts_1700/${time_step}
read_restart ./data/restarts_1700/1000
  restoring atom style atomic from restart
  orthogonal box = (0 0 0) to (29.151 29.151 29.151)
  1 by 1 by 1 MPI processor grid
  pair style eam/fs stores no restart info
  2001 atoms
  read_restart CPU = 0.000313997 secs
pair_style      eam/fs
pair_coeff      * * ../Fe_mm.eam.fs Fe
Reading potential file ../Fe_mm.eam.fs with DATE: 2007-06-11
min_style cg
minimize 1e-9 1e-9 5000 5000
WARNING: Using 'neigh_modify every 1 delay 0 check yes' setting during minimization (../min.cpp:168)
Unused restart file peratom fix info:
  fix style: STORE, fix ID: msd_COMPUTE_STORE
Neighbor list info ...
  update every 1 steps, delay 0 steps, check yes
  max neighbors/atom: 2000, page size: 100000
  master list distance cutoff = 7.3
  ghost atom cutoff = 7.3
  binsize = 3.65, bins = 8 8 8
  1 neighbor lists, perpetual/occasional/extra = 1 0 0
  (1) pair eam/fs, perpetual
      attributes: half, newton on
      pair build: half/bin/atomonly/newton
      stencil: half/bin/3d/newton
      bin: standard
Per MPI rank memory allocation (min/avg/max) = 4.662 | 4.662 | 4.662 Mbytes
Step Temp E_pair E_mol TotEng Press 
    1000    1628.3407   -7738.4119            0   -7317.4528   -1035.9296 
    1049    1628.3407   -8196.5977            0   -7775.6386   -82624.657 
Loop time of 0.430155 on 1 procs for 49 steps with 2001 atoms

90.7% CPU use with 1 MPI tasks x no OpenMP threads

Minimization stats:
  Stopping criterion = energy tolerance
  Energy initial, next-to-last, final = 
        -7738.41190795     -8196.59773274     -8196.59774048
  Force two-norm initial, final = 84.4582 0.00906782
  Force max component initial, final = 4.70674 0.00180597
  Final line search alpha, max atom move = 1 0.00180597
  Iterations, force evaluations = 49 85

MPI task timing breakdown:
Section |  min time  |  avg time  |  max time  |%varavg| %total
---------------------------------------------------------------
Pair    | 0.42212    | 0.42212    | 0.42212    |   0.0 | 98.13
Neigh   | 0          | 0          | 0          |   0.0 |  0.00
Comm    | 0.0021083  | 0.0021083  | 0.0021083  |   0.0 |  0.49
Output  | 0          | 0          | 0          |   0.0 |  0.00
Modify  | 0          | 0          | 0          |   0.0 |  0.00
Other   |            | 0.005925   |            |       |  1.38

Nlocal:    2001 ave 2001 max 2001 min
Histogram: 1 0 0 0 0 0 0 0 0 0
Nghost:    4757 ave 4757 max 4757 min
Histogram: 1 0 0 0 0 0 0 0 0 0
Neighs:    133915 ave 133915 max 133915 min
Histogram: 1 0 0 0 0 0 0 0 0 0

Total # of neighbors = 133915
Ave neighs/atom = 66.924
Neighbor list builds = 0
Dangerous builds = 0
compute cna all cna/atom 3.45
compute 2 all reduce sum c_cna
thermo_style    custom step temp pe c_2
run 0
WARNING: No fixes defined, atoms won't move (../verlet.cpp:52)
Neighbor list info ...
  update every 1 steps, delay 10 steps, check yes
  max neighbors/atom: 2000, page size: 100000
  master list distance cutoff = 7.3
  ghost atom cutoff = 7.3
  binsize = 3.65, bins = 8 8 8
  2 neighbor lists, perpetual/occasional/extra = 1 1 0
  (1) pair eam/fs, perpetual
      attributes: half, newton on
      pair build: half/bin/atomonly/newton
      stencil: half/bin/3d/newton
      bin: standard
  (2) compute cna/atom, occasional
      attributes: full, newton on
      pair build: full/bin/atomonly
      stencil: full/bin/3d
      bin: standard
Per MPI rank memory allocation (min/avg/max) = 4.433 | 4.433 | 4.433 Mbytes
Step Temp PotEng c_2 
    1049    1628.3407   -8196.5977         6039 
Loop time of 2.14577e-06 on 1 procs for 0 steps with 2001 atoms

46.6% CPU use with 1 MPI tasks x no OpenMP threads

MPI task timing breakdown:
Section |  min time  |  avg time  |  max time  |%varavg| %total
---------------------------------------------------------------
Pair    | 0          | 0          | 0          |   0.0 |  0.00
Neigh   | 0          | 0          | 0          |   0.0 |  0.00
Comm    | 0          | 0          | 0          |   0.0 |  0.00
Output  | 0          | 0          | 0          |   0.0 |  0.00
Modify  | 0          | 0          | 0          |   0.0 |  0.00
Other   |            | 2.146e-06  |            |       |100.00

Nlocal:    2001 ave 2001 max 2001 min
Histogram: 1 0 0 0 0 0 0 0 0 0
Nghost:    5405 ave 5405 max 5405 min
Histogram: 1 0 0 0 0 0 0 0 0 0
Neighs:    136111 ave 136111 max 136111 min
Histogram: 1 0 0 0 0 0 0 0 0 0
FullNghs:  272222 ave 272222 max 272222 min
Histogram: 1 0 0 0 0 0 0 0 0 0

Total # of neighbors = 272222
Ave neighs/atom = 136.043
Neighbor list builds = 0
Dangerous builds = 0
#------------------------------------------------
variable cnat atom "c_cna != 3.0"
group sia_surround variable cnat
18 atoms in group sia_surround
dump		after_min_sia sia_surround custom 1 ./data/dumps_$t/surr_sia.dump x y z
dump		after_min_sia sia_surround custom 1 ./data/dumps_1700/surr_sia.dump x y z
dump_modify after_min_sia append yes

compute comV sia_surround com
compute med_x sia_surround reduce ave x
compute med_y sia_surround reduce ave y
compute med_z sia_surround reduce ave z
thermo_style custom step temp pe c_comV[1] c_comV[2] c_comV[3] c_med_x c_med_y c_med_z
run 0
WARNING: No fixes defined, atoms won't move (../verlet.cpp:52)
Per MPI rank memory allocation (min/avg/max) = 7.637 | 7.637 | 7.637 Mbytes
Step Temp PotEng c_comV[1] c_comV[2] c_comV[3] c_med_x c_med_y c_med_z 
    1049    1628.3407   -8196.5977    24.774013    4.3782335    10.205601    24.774013    4.3782335    10.205601 
Loop time of 9.53674e-07 on 1 procs for 0 steps with 2001 atoms

104.9% CPU use with 1 MPI tasks x no OpenMP threads

MPI task timing breakdown:
Section |  min time  |  avg time  |  max time  |%varavg| %total
---------------------------------------------------------------
Pair    | 0          | 0          | 0          |   0.0 |  0.00
Neigh   | 0          | 0          | 0          |   0.0 |  0.00
Comm    | 0          | 0          | 0          |   0.0 |  0.00
Output  | 0          | 0          | 0          |   0.0 |  0.00
Modify  | 0          | 0          | 0          |   0.0 |  0.00
Other   |            | 9.537e-07  |            |       |100.00

Nlocal:    2001 ave 2001 max 2001 min
Histogram: 1 0 0 0 0 0 0 0 0 0
Nghost:    5405 ave 5405 max 5405 min
Histogram: 1 0 0 0 0 0 0 0 0 0
Neighs:    136111 ave 136111 max 136111 min
Histogram: 1 0 0 0 0 0 0 0 0 0
FullNghs:  272222 ave 272222 max 272222 min
Histogram: 1 0 0 0 0 0 0 0 0 0

Total # of neighbors = 272222
Ave neighs/atom = 136.043
Neighbor list builds = 0
Dangerous builds = 0
variable comX equal c_comV[1]
variable comY equal c_comV[2]
variable comZ equal c_comV[3]
variable med_x equal c_med_x
variable med_y equal c_med_y
variable med_z equal c_med_z
variable time equal ${time_step}/1000
variable time equal 1000/1000
variable ts equal time
print "${time};${comX};${comY};${comZ}" append ./data/other_$t/coords
print "${time};${comX};${comY};${comZ}" append ./data/other_1700/coords
1;24.7740132249903;4.37823345391545;10.2056009935118
print "${time};${med_x};${med_y};${med_z}" append ./data/other_$t/unw_coords
print "${time};${med_x};${med_y};${med_z}" append ./data/other_1700/unw_coords
1;24.7740132249903;4.37823345391545;10.2056009935118
clear
shell rm ./data/restarts_$t/${time_step}
shell rm ./data/restarts_1700/${time_step}
shell rm ./data/restarts_1700/1000
next i
jump r2d.lmp
# -var l 2.8712 -var t 700
# -var l 2.8947 -var t 1300
# -var l 2.9151 -var t 1700
#------------------------------------------------
variable i loop 0 10000 #число рестартов
variable time_step equal 1000*$i
variable time_step equal 1000*2
variable time_step_previous equal 1000*$i-1000
variable time_step_previous equal 1000*2-1000
# shell rm ./data/restarts_$t/${time_step_previous}
shell while [ ! -f ./data/restarts_$t/${time_step} ]; do sleep 0.5; done  #ждет, пока не создастся след рестарт
shell while [ ! -f ./data/restarts_1700/${time_step} ]; do sleep 0.5; done  
shell while [ ! -f ./data/restarts_1700/2000 ]; do sleep 0.5; done  
# variable time_step_previous equal 1000*$i-1000
#------------------------------------------------
read_restart ./data/restarts_$t/${time_step}
read_restart ./data/restarts_1700/${time_step}
read_restart ./data/restarts_1700/2000
  restoring atom style atomic from restart
  orthogonal box = (0 0 0) to (29.151 29.151 29.151)
  1 by 1 by 1 MPI processor grid
  pair style eam/fs stores no restart info
  2001 atoms
  read_restart CPU = 0.000413895 secs
pair_style      eam/fs
pair_coeff      * * ../Fe_mm.eam.fs Fe
Reading potential file ../Fe_mm.eam.fs with DATE: 2007-06-11
min_style cg
minimize 1e-9 1e-9 5000 5000
WARNING: Using 'neigh_modify every 1 delay 0 check yes' setting during minimization (../min.cpp:168)
Unused restart file peratom fix info:
  fix style: STORE, fix ID: msd_COMPUTE_STORE
Neighbor list info ...
  update every 1 steps, delay 0 steps, check yes
  max neighbors/atom: 2000, page size: 100000
  master list distance cutoff = 7.3
  ghost atom cutoff = 7.3
  binsize = 3.65, bins = 8 8 8
  1 neighbor lists, perpetual/occasional/extra = 1 0 0
  (1) pair eam/fs, perpetual
      attributes: half, newton on
      pair build: half/bin/atomonly/newton
      stencil: half/bin/3d/newton
      bin: standard
Per MPI rank memory allocation (min/avg/max) = 4.689 | 4.689 | 4.689 Mbytes
Step Temp E_pair E_mol TotEng Press 
    2000    1615.5308   -7735.1002            0   -7317.4527    594.40452 
    2053    1615.5308   -8196.5977            0   -7778.9502   -82767.694 
Loop time of 0.467783 on 1 procs for 53 steps with 2001 atoms

90.5% CPU use with 1 MPI tasks x no OpenMP threads

Minimization stats:
  Stopping criterion = energy tolerance
  Energy initial, next-to-last, final = 
        -7735.10021426     -8196.59773562      -8196.5977403
  Force two-norm initial, final = 82.9242 0.00917248
  Force max component initial, final = 4.5211 0.00294805
  Final line search alpha, max atom move = 1 0.00294805
  Iterations, force evaluations = 53 90

MPI task timing breakdown:
Section |  min time  |  avg time  |  max time  |%varavg| %total
---------------------------------------------------------------
Pair    | 0.45742    | 0.45742    | 0.45742    |   0.0 | 97.78
Neigh   | 0.0039082  | 0.0039082  | 0.0039082  |   0.0 |  0.84
Comm    | 0.0022633  | 0.0022633  | 0.0022633  |   0.0 |  0.48
Output  | 0          | 0          | 0          |   0.0 |  0.00
Modify  | 0          | 0          | 0          |   0.0 |  0.00
Other   |            | 0.004196   |            |       |  0.90

Nlocal:    2001 ave 2001 max 2001 min
Histogram: 1 0 0 0 0 0 0 0 0 0
Nghost:    4847 ave 4847 max 4847 min
Histogram: 1 0 0 0 0 0 0 0 0 0
Neighs:    135934 ave 135934 max 135934 min
Histogram: 1 0 0 0 0 0 0 0 0 0

Total # of neighbors = 135934
Ave neighs/atom = 67.933
Neighbor list builds = 1
Dangerous builds = 0
compute cna all cna/atom 3.45
compute 2 all reduce sum c_cna
thermo_style    custom step temp pe c_2
run 0
WARNING: No fixes defined, atoms won't move (../verlet.cpp:52)
Neighbor list info ...
  update every 1 steps, delay 10 steps, check yes
  max neighbors/atom: 2000, page size: 100000
  master list distance cutoff = 7.3
  ghost atom cutoff = 7.3
  binsize = 3.65, bins = 8 8 8
  2 neighbor lists, perpetual/occasional/extra = 1 1 0
  (1) pair eam/fs, perpetual
      attributes: half, newton on
      pair build: half/bin/atomonly/newton
      stencil: half/bin/3d/newton
      bin: standard
  (2) compute cna/atom, occasional
      attributes: full, newton on
      pair build: full/bin/atomonly
      stencil: full/bin/3d
      bin: standard
Per MPI rank memory allocation (min/avg/max) = 4.419 | 4.419 | 4.419 Mbytes
Step Temp PotEng c_2 
    2053    1615.5308   -8196.5977         6039 
Loop time of 1.19209e-06 on 1 procs for 0 steps with 2001 atoms

83.9% CPU use with 1 MPI tasks x no OpenMP threads

MPI task timing breakdown:
Section |  min time  |  avg time  |  max time  |%varavg| %total
---------------------------------------------------------------
Pair    | 0          | 0          | 0          |   0.0 |  0.00
Neigh   | 0          | 0          | 0          |   0.0 |  0.00
Comm    | 0          | 0          | 0          |   0.0 |  0.00
Output  | 0          | 0          | 0          |   0.0 |  0.00
Modify  | 0          | 0          | 0          |   0.0 |  0.00
Other   |            | 1.192e-06  |            |       |100.00

Nlocal:    2001 ave 2001 max 2001 min
Histogram: 1 0 0 0 0 0 0 0 0 0
Nghost:    5427 ave 5427 max 5427 min
Histogram: 1 0 0 0 0 0 0 0 0 0
Neighs:    136111 ave 136111 max 136111 min
Histogram: 1 0 0 0 0 0 0 0 0 0
FullNghs:  272222 ave 272222 max 272222 min
Histogram: 1 0 0 0 0 0 0 0 0 0

Total # of neighbors = 272222
Ave neighs/atom = 136.043
Neighbor list builds = 0
Dangerous builds = 0
#------------------------------------------------
variable cnat atom "c_cna != 3.0"
group sia_surround variable cnat
18 atoms in group sia_surround
dump		after_min_sia sia_surround custom 1 ./data/dumps_$t/surr_sia.dump x y z
dump		after_min_sia sia_surround custom 1 ./data/dumps_1700/surr_sia.dump x y z
dump_modify after_min_sia append yes

compute comV sia_surround com
compute med_x sia_surround reduce ave x
compute med_y sia_surround reduce ave y
compute med_z sia_surround reduce ave z
thermo_style custom step temp pe c_comV[1] c_comV[2] c_comV[3] c_med_x c_med_y c_med_z
run 0
WARNING: No fixes defined, atoms won't move (../verlet.cpp:52)
Per MPI rank memory allocation (min/avg/max) = 7.623 | 7.623 | 7.623 Mbytes
Step Temp PotEng c_comV[1] c_comV[2] c_comV[3] c_med_x c_med_y c_med_z 
    2053    1615.5308   -8196.5977    21.860381    4.3782498    10.205491    21.860381    4.3782498    10.205491 
Loop time of 1.90735e-06 on 1 procs for 0 steps with 2001 atoms

104.9% CPU use with 1 MPI tasks x no OpenMP threads

MPI task timing breakdown:
Section |  min time  |  avg time  |  max time  |%varavg| %total
---------------------------------------------------------------
Pair    | 0          | 0          | 0          |   0.0 |  0.00
Neigh   | 0          | 0          | 0          |   0.0 |  0.00
Comm    | 0          | 0          | 0          |   0.0 |  0.00
Output  | 0          | 0          | 0          |   0.0 |  0.00
Modify  | 0          | 0          | 0          |   0.0 |  0.00
Other   |            | 1.907e-06  |            |       |100.00

Nlocal:    2001 ave 2001 max 2001 min
Histogram: 1 0 0 0 0 0 0 0 0 0
Nghost:    5427 ave 5427 max 5427 min
Histogram: 1 0 0 0 0 0 0 0 0 0
Neighs:    136111 ave 136111 max 136111 min
Histogram: 1 0 0 0 0 0 0 0 0 0
FullNghs:  272222 ave 272222 max 272222 min
Histogram: 1 0 0 0 0 0 0 0 0 0

Total # of neighbors = 272222
Ave neighs/atom = 136.043
Neighbor list builds = 0
Dangerous builds = 0
variable comX equal c_comV[1]
variable comY equal c_comV[2]
variable comZ equal c_comV[3]
variable med_x equal c_med_x
variable med_y equal c_med_y
variable med_z equal c_med_z
variable time equal ${time_step}/1000
variable time equal 2000/1000
variable ts equal time
print "${time};${comX};${comY};${comZ}" append ./data/other_$t/coords
print "${time};${comX};${comY};${comZ}" append ./data/other_1700/coords
2;21.860380904256;4.3782497692392;10.2054907108277
print "${time};${med_x};${med_y};${med_z}" append ./data/other_$t/unw_coords
print "${time};${med_x};${med_y};${med_z}" append ./data/other_1700/unw_coords
2;21.860380904256;4.3782497692392;10.2054907108277
clear
shell rm ./data/restarts_$t/${time_step}
shell rm ./data/restarts_1700/${time_step}
shell rm ./data/restarts_1700/2000
next i
jump r2d.lmp
# -var l 2.8712 -var t 700
# -var l 2.8947 -var t 1300
# -var l 2.9151 -var t 1700
#------------------------------------------------
variable i loop 0 10000 #число рестартов
variable time_step equal 1000*$i
variable time_step equal 1000*3
variable time_step_previous equal 1000*$i-1000
variable time_step_previous equal 1000*3-1000
# shell rm ./data/restarts_$t/${time_step_previous}
shell while [ ! -f ./data/restarts_$t/${time_step} ]; do sleep 0.5; done  #ждет, пока не создастся след рестарт
shell while [ ! -f ./data/restarts_1700/${time_step} ]; do sleep 0.5; done  
shell while [ ! -f ./data/restarts_1700/3000 ]; do sleep 0.5; done  
# variable time_step_previous equal 1000*$i-1000
#------------------------------------------------
read_restart ./data/restarts_$t/${time_step}
read_restart ./data/restarts_1700/${time_step}
read_restart ./data/restarts_1700/3000
  restoring atom style atomic from restart
  orthogonal box = (0 0 0) to (29.151 29.151 29.151)
  1 by 1 by 1 MPI processor grid
  pair style eam/fs stores no restart info
  2001 atoms
  read_restart CPU = 0.000264168 secs
pair_style      eam/fs
pair_coeff      * * ../Fe_mm.eam.fs Fe
Reading potential file ../Fe_mm.eam.fs with DATE: 2007-06-11
min_style cg
minimize 1e-9 1e-9 5000 5000
WARNING: Using 'neigh_modify every 1 delay 0 check yes' setting during minimization (../min.cpp:168)
Unused restart file peratom fix info:
  fix style: STORE, fix ID: msd_COMPUTE_STORE
Neighbor list info ...
  update every 1 steps, delay 0 steps, check yes
  max neighbors/atom: 2000, page size: 100000
  master list distance cutoff = 7.3
  ghost atom cutoff = 7.3
  binsize = 3.65, bins = 8 8 8
  1 neighbor lists, perpetual/occasional/extra = 1 0 0
  (1) pair eam/fs, perpetual
      attributes: half, newton on
      pair build: half/bin/atomonly/newton
      stencil: half/bin/3d/newton
      bin: standard
Per MPI rank memory allocation (min/avg/max) = 4.691 | 4.691 | 4.691 Mbytes
Step Temp E_pair E_mol TotEng Press 
    3000    1616.1411   -7735.2573            0    -7317.452   -350.84962 
    3057    1616.1411   -8196.5977            0   -7778.7925   -82760.764 
Loop time of 0.516905 on 1 procs for 57 steps with 2001 atoms

91.4% CPU use with 1 MPI tasks x no OpenMP threads

Minimization stats:
  Stopping criterion = energy tolerance
  Energy initial, next-to-last, final = 
         -7735.2572949     -8196.59773331     -8196.59773909
  Force two-norm initial, final = 82.643 0.00905449
  Force max component initial, final = 4.10208 0.00201421
  Final line search alpha, max atom move = 1 0.00201421
  Iterations, force evaluations = 57 100

MPI task timing breakdown:
Section |  min time  |  avg time  |  max time  |%varavg| %total
---------------------------------------------------------------
Pair    | 0.50941    | 0.50941    | 0.50941    |   0.0 | 98.55
Neigh   | 0          | 0          | 0          |   0.0 |  0.00
Comm    | 0.0026009  | 0.0026009  | 0.0026009  |   0.0 |  0.50
Output  | 0          | 0          | 0          |   0.0 |  0.00
Modify  | 0          | 0          | 0          |   0.0 |  0.00
Other   |            | 0.004889   |            |       |  0.95

Nlocal:    2001 ave 2001 max 2001 min
Histogram: 1 0 0 0 0 0 0 0 0 0
Nghost:    4770 ave 4770 max 4770 min
Histogram: 1 0 0 0 0 0 0 0 0 0
Neighs:    134048 ave 134048 max 134048 min
Histogram: 1 0 0 0 0 0 0 0 0 0

Total # of neighbors = 134048
Ave neighs/atom = 66.9905
Neighbor list builds = 0
Dangerous builds = 0
compute cna all cna/atom 3.45
compute 2 all reduce sum c_cna
thermo_style    custom step temp pe c_2
run 0
WARNING: No fixes defined, atoms won't move (../verlet.cpp:52)
Neighbor list info ...
  update every 1 steps, delay 10 steps, check yes
  max neighbors/atom: 2000, page size: 100000
  master list distance cutoff = 7.3
  ghost atom cutoff = 7.3
  binsize = 3.65, bins = 8 8 8
  2 neighbor lists, perpetual/occasional/extra = 1 1 0
  (1) pair eam/fs, perpetual
      attributes: half, newton on
      pair build: half/bin/atomonly/newton
      stencil: half/bin/3d/newton
      bin: standard
  (2) compute cna/atom, occasional
      attributes: full, newton on
      pair build: full/bin/atomonly
      stencil: full/bin/3d
      bin: standard
Per MPI rank memory allocation (min/avg/max) = 4.422 | 4.422 | 4.422 Mbytes
Step Temp PotEng c_2 
    3057    1616.1411   -8196.5977         6039 
Loop time of 9.53674e-07 on 1 procs for 0 steps with 2001 atoms

104.9% CPU use with 1 MPI tasks x no OpenMP threads

MPI task timing breakdown:
Section |  min time  |  avg time  |  max time  |%varavg| %total
---------------------------------------------------------------
Pair    | 0          | 0          | 0          |   0.0 |  0.00
Neigh   | 0          | 0          | 0          |   0.0 |  0.00
Comm    | 0          | 0          | 0          |   0.0 |  0.00
Output  | 0          | 0          | 0          |   0.0 |  0.00
Modify  | 0          | 0          | 0          |   0.0 |  0.00
Other   |            | 9.537e-07  |            |       |100.00

Nlocal:    2001 ave 2001 max 2001 min
Histogram: 1 0 0 0 0 0 0 0 0 0
Nghost:    5432 ave 5432 max 5432 min
Histogram: 1 0 0 0 0 0 0 0 0 0
Neighs:    136111 ave 136111 max 136111 min
Histogram: 1 0 0 0 0 0 0 0 0 0
FullNghs:  272222 ave 272222 max 272222 min
Histogram: 1 0 0 0 0 0 0 0 0 0

Total # of neighbors = 272222
Ave neighs/atom = 136.043
Neighbor list builds = 0
Dangerous builds = 0
#------------------------------------------------
variable cnat atom "c_cna != 3.0"
group sia_surround variable cnat
18 atoms in group sia_surround
dump		after_min_sia sia_surround custom 1 ./data/dumps_$t/surr_sia.dump x y z
dump		after_min_sia sia_surround custom 1 ./data/dumps_1700/surr_sia.dump x y z
dump_modify after_min_sia append yes

compute comV sia_surround com
compute med_x sia_surround reduce ave x
compute med_y sia_surround reduce ave y
compute med_z sia_surround reduce ave z
thermo_style custom step temp pe c_comV[1] c_comV[2] c_comV[3] c_med_x c_med_y c_med_z
run 0
WARNING: No fixes defined, atoms won't move (../verlet.cpp:52)
Per MPI rank memory allocation (min/avg/max) = 7.626 | 7.626 | 7.626 Mbytes
Step Temp PotEng c_comV[1] c_comV[2] c_comV[3] c_med_x c_med_y c_med_z 
    3057    1616.1411   -8196.5977    17.489752    2.9214592    8.7487692    17.489752    4.5409592    8.7487692 
Loop time of 1.19209e-06 on 1 procs for 0 steps with 2001 atoms

0.0% CPU use with 1 MPI tasks x no OpenMP threads

MPI task timing breakdown:
Section |  min time  |  avg time  |  max time  |%varavg| %total
---------------------------------------------------------------
Pair    | 0          | 0          | 0          |   0.0 |  0.00
Neigh   | 0          | 0          | 0          |   0.0 |  0.00
Comm    | 0          | 0          | 0          |   0.0 |  0.00
Output  | 0          | 0          | 0          |   0.0 |  0.00
Modify  | 0          | 0          | 0          |   0.0 |  0.00
Other   |            | 1.192e-06  |            |       |100.00

Nlocal:    2001 ave 2001 max 2001 min
Histogram: 1 0 0 0 0 0 0 0 0 0
Nghost:    5432 ave 5432 max 5432 min
Histogram: 1 0 0 0 0 0 0 0 0 0
Neighs:    136111 ave 136111 max 136111 min
Histogram: 1 0 0 0 0 0 0 0 0 0
FullNghs:  272222 ave 272222 max 272222 min
Histogram: 1 0 0 0 0 0 0 0 0 0

Total # of neighbors = 272222
Ave neighs/atom = 136.043
Neighbor list builds = 0
Dangerous builds = 0
variable comX equal c_comV[1]
variable comY equal c_comV[2]
variable comZ equal c_comV[3]
variable med_x equal c_med_x
variable med_y equal c_med_y
variable med_z equal c_med_z
variable time equal ${time_step}/1000
variable time equal 3000/1000
variable ts equal time
print "${time};${comX};${comY};${comZ}" append ./data/other_$t/coords
print "${time};${comX};${comY};${comZ}" append ./data/other_1700/coords
3;17.4897519130774;2.92145919244081;8.74876924687274
print "${time};${med_x};${med_y};${med_z}" append ./data/other_$t/unw_coords
print "${time};${med_x};${med_y};${med_z}" append ./data/other_1700/unw_coords
3;17.4897519130774;4.54095919244081;8.74876924687275
clear
shell rm ./data/restarts_$t/${time_step}
shell rm ./data/restarts_1700/${time_step}
shell rm ./data/restarts_1700/3000
next i
jump r2d.lmp
# -var l 2.8712 -var t 700
# -var l 2.8947 -var t 1300
# -var l 2.9151 -var t 1700
#------------------------------------------------
variable i loop 0 10000 #число рестартов
variable time_step equal 1000*$i
variable time_step equal 1000*4
variable time_step_previous equal 1000*$i-1000
variable time_step_previous equal 1000*4-1000
# shell rm ./data/restarts_$t/${time_step_previous}
shell while [ ! -f ./data/restarts_$t/${time_step} ]; do sleep 0.5; done  #ждет, пока не создастся след рестарт
shell while [ ! -f ./data/restarts_1700/${time_step} ]; do sleep 0.5; done  
shell while [ ! -f ./data/restarts_1700/4000 ]; do sleep 0.5; done  
# variable time_step_previous equal 1000*$i-1000
#------------------------------------------------
read_restart ./data/restarts_$t/${time_step}
read_restart ./data/restarts_1700/${time_step}
read_restart ./data/restarts_1700/4000
  restoring atom style atomic from restart
  orthogonal box = (0 0 0) to (29.151 29.151 29.151)
  1 by 1 by 1 MPI processor grid
  pair style eam/fs stores no restart info
  2001 atoms
  read_restart CPU = 0.000287056 secs
pair_style      eam/fs
pair_coeff      * * ../Fe_mm.eam.fs Fe
Reading potential file ../Fe_mm.eam.fs with DATE: 2007-06-11
min_style cg
minimize 1e-9 1e-9 5000 5000
WARNING: Using 'neigh_modify every 1 delay 0 check yes' setting during minimization (../min.cpp:168)
Unused restart file peratom fix info:
  fix style: STORE, fix ID: msd_COMPUTE_STORE
Neighbor list info ...
  update every 1 steps, delay 0 steps, check yes
  max neighbors/atom: 2000, page size: 100000
  master list distance cutoff = 7.3
  ghost atom cutoff = 7.3
  binsize = 3.65, bins = 8 8 8
  1 neighbor lists, perpetual/occasional/extra = 1 0 0
  (1) pair eam/fs, perpetual
      attributes: half, newton on
      pair build: half/bin/atomonly/newton
      stencil: half/bin/3d/newton
      bin: standard
Per MPI rank memory allocation (min/avg/max) = 4.663 | 4.663 | 4.663 Mbytes
Step Temp E_pair E_mol TotEng Press 
    4000    1618.4545    -7735.855            0   -7317.4517   -1258.0562 
    4058    1618.4545   -8196.5977            0   -7778.1944   -82734.973 
Loop time of 0.454415 on 1 procs for 58 steps with 2001 atoms

96.3% CPU use with 1 MPI tasks x no OpenMP threads

Minimization stats:
  Stopping criterion = energy tolerance
  Energy initial, next-to-last, final = 
        -7735.85503336     -8196.59772361      -8196.5977294
  Force two-norm initial, final = 82.3703 0.0119641
  Force max component initial, final = 5.54501 0.00478981
  Final line search alpha, max atom move = 1 0.00478981
  Iterations, force evaluations = 58 101

MPI task timing breakdown:
Section |  min time  |  avg time  |  max time  |%varavg| %total
---------------------------------------------------------------
Pair    | 0.44163    | 0.44163    | 0.44163    |   0.0 | 97.19
Neigh   | 0.005589   | 0.005589   | 0.005589   |   0.0 |  1.23
Comm    | 0.0024703  | 0.0024703  | 0.0024703  |   0.0 |  0.54
Output  | 0          | 0          | 0          |   0.0 |  0.00
Modify  | 0          | 0          | 0          |   0.0 |  0.00
Other   |            | 0.004723   |            |       |  1.04

Nlocal:    2001 ave 2001 max 2001 min
Histogram: 1 0 0 0 0 0 0 0 0 0
Nghost:    5440 ave 5440 max 5440 min
Histogram: 1 0 0 0 0 0 0 0 0 0
Neighs:    136101 ave 136101 max 136101 min
Histogram: 1 0 0 0 0 0 0 0 0 0

Total # of neighbors = 136101
Ave neighs/atom = 68.0165
Neighbor list builds = 1
Dangerous builds = 0
compute cna all cna/atom 3.45
compute 2 all reduce sum c_cna
thermo_style    custom step temp pe c_2
run 0
WARNING: No fixes defined, atoms won't move (../verlet.cpp:52)
Neighbor list info ...
  update every 1 steps, delay 10 steps, check yes
  max neighbors/atom: 2000, page size: 100000
  master list distance cutoff = 7.3
  ghost atom cutoff = 7.3
  binsize = 3.65, bins = 8 8 8
  2 neighbor lists, perpetual/occasional/extra = 1 1 0
  (1) pair eam/fs, perpetual
      attributes: half, newton on
      pair build: half/bin/atomonly/newton
      stencil: half/bin/3d/newton
      bin: standard
  (2) compute cna/atom, occasional
      attributes: full, newton on
      pair build: full/bin/atomonly
      stencil: full/bin/3d
      bin: standard
Per MPI rank memory allocation (min/avg/max) = 4.436 | 4.436 | 4.436 Mbytes
Step Temp PotEng c_2 
    4058    1618.4545   -8196.5977         6039 
Loop time of 9.53674e-07 on 1 procs for 0 steps with 2001 atoms

104.9% CPU use with 1 MPI tasks x no OpenMP threads

MPI task timing breakdown:
Section |  min time  |  avg time  |  max time  |%varavg| %total
---------------------------------------------------------------
Pair    | 0          | 0          | 0          |   0.0 |  0.00
Neigh   | 0          | 0          | 0          |   0.0 |  0.00
Comm    | 0          | 0          | 0          |   0.0 |  0.00
Output  | 0          | 0          | 0          |   0.0 |  0.00
Modify  | 0          | 0          | 0          |   0.0 |  0.00
Other   |            | 9.537e-07  |            |       |100.00

Nlocal:    2001 ave 2001 max 2001 min
Histogram: 1 0 0 0 0 0 0 0 0 0
Nghost:    5469 ave 5469 max 5469 min
Histogram: 1 0 0 0 0 0 0 0 0 0
Neighs:    136111 ave 136111 max 136111 min
Histogram: 1 0 0 0 0 0 0 0 0 0
FullNghs:  272222 ave 272222 max 272222 min
Histogram: 1 0 0 0 0 0 0 0 0 0

Total # of neighbors = 272222
Ave neighs/atom = 136.043
Neighbor list builds = 0
Dangerous builds = 0
#------------------------------------------------
variable cnat atom "c_cna != 3.0"
group sia_surround variable cnat
18 atoms in group sia_surround
dump		after_min_sia sia_surround custom 1 ./data/dumps_$t/surr_sia.dump x y z
dump		after_min_sia sia_surround custom 1 ./data/dumps_1700/surr_sia.dump x y z
dump_modify after_min_sia append yes

compute comV sia_surround com
compute med_x sia_surround reduce ave x
compute med_y sia_surround reduce ave y
compute med_z sia_surround reduce ave z
thermo_style custom step temp pe c_comV[1] c_comV[2] c_comV[3] c_med_x c_med_y c_med_z
run 0
WARNING: No fixes defined, atoms won't move (../verlet.cpp:52)
Per MPI rank memory allocation (min/avg/max) = 7.639 | 7.639 | 7.639 Mbytes
Step Temp PotEng c_comV[1] c_comV[2] c_comV[3] c_med_x c_med_y c_med_z 
    4058    1618.4545   -8196.5977    7.2921709    13.119149    16.032579    7.2921709    13.119149    16.032579 
Loop time of 1.90735e-06 on 1 procs for 0 steps with 2001 atoms

104.9% CPU use with 1 MPI tasks x no OpenMP threads

MPI task timing breakdown:
Section |  min time  |  avg time  |  max time  |%varavg| %total
---------------------------------------------------------------
Pair    | 0          | 0          | 0          |   0.0 |  0.00
Neigh   | 0          | 0          | 0          |   0.0 |  0.00
Comm    | 0          | 0          | 0          |   0.0 |  0.00
Output  | 0          | 0          | 0          |   0.0 |  0.00
Modify  | 0          | 0          | 0          |   0.0 |  0.00
Other   |            | 1.907e-06  |            |       |100.00

Nlocal:    2001 ave 2001 max 2001 min
Histogram: 1 0 0 0 0 0 0 0 0 0
Nghost:    5469 ave 5469 max 5469 min
Histogram: 1 0 0 0 0 0 0 0 0 0
Neighs:    136111 ave 136111 max 136111 min
Histogram: 1 0 0 0 0 0 0 0 0 0
FullNghs:  272222 ave 272222 max 272222 min
Histogram: 1 0 0 0 0 0 0 0 0 0

Total # of neighbors = 272222
Ave neighs/atom = 136.043
Neighbor list builds = 0
Dangerous builds = 0
variable comX equal c_comV[1]
variable comY equal c_comV[2]
variable comZ equal c_comV[3]
variable med_x equal c_med_x
variable med_y equal c_med_y
variable med_z equal c_med_z
variable time equal ${time_step}/1000
variable time equal 4000/1000
variable ts equal time
print "${time};${comX};${comY};${comZ}" append ./data/other_$t/coords
print "${time};${comX};${comY};${comZ}" append ./data/other_1700/coords
4;7.29217093017256;13.1191492332217;16.032578829478
print "${time};${med_x};${med_y};${med_z}" append ./data/other_$t/unw_coords
print "${time};${med_x};${med_y};${med_z}" append ./data/other_1700/unw_coords
4;7.29217093017257;13.1191492332217;16.0325788294781
clear
shell rm ./data/restarts_$t/${time_step}
shell rm ./data/restarts_1700/${time_step}
shell rm ./data/restarts_1700/4000
next i
jump r2d.lmp
# -var l 2.8712 -var t 700
# -var l 2.8947 -var t 1300
# -var l 2.9151 -var t 1700
#------------------------------------------------
variable i loop 0 10000 #число рестартов
variable time_step equal 1000*$i
variable time_step equal 1000*5
variable time_step_previous equal 1000*$i-1000
variable time_step_previous equal 1000*5-1000
# shell rm ./data/restarts_$t/${time_step_previous}
shell while [ ! -f ./data/restarts_$t/${time_step} ]; do sleep 0.5; done  #ждет, пока не создастся след рестарт
shell while [ ! -f ./data/restarts_1700/${time_step} ]; do sleep 0.5; done  
shell while [ ! -f ./data/restarts_1700/5000 ]; do sleep 0.5; done  
# variable time_step_previous equal 1000*$i-1000
#------------------------------------------------
read_restart ./data/restarts_$t/${time_step}
read_restart ./data/restarts_1700/${time_step}
read_restart ./data/restarts_1700/5000
  restoring atom style atomic from restart
  orthogonal box = (0 0 0) to (29.151 29.151 29.151)
  1 by 1 by 1 MPI processor grid
  pair style eam/fs stores no restart info
  2001 atoms
  read_restart CPU = 0.00031805 secs
pair_style      eam/fs
pair_coeff      * * ../Fe_mm.eam.fs Fe
Reading potential file ../Fe_mm.eam.fs with DATE: 2007-06-11
min_style cg
minimize 1e-9 1e-9 5000 5000
WARNING: Using 'neigh_modify every 1 delay 0 check yes' setting during minimization (../min.cpp:168)
Unused restart file peratom fix info:
  fix style: STORE, fix ID: msd_COMPUTE_STORE
Neighbor list info ...
  update every 1 steps, delay 0 steps, check yes
  max neighbors/atom: 2000, page size: 100000
  master list distance cutoff = 7.3
  ghost atom cutoff = 7.3
  binsize = 3.65, bins = 8 8 8
  1 neighbor lists, perpetual/occasional/extra = 1 0 0
  (1) pair eam/fs, perpetual
      attributes: half, newton on
      pair build: half/bin/atomonly/newton
      stencil: half/bin/3d/newton
      bin: standard
Per MPI rank memory allocation (min/avg/max) = 4.688 | 4.688 | 4.688 Mbytes
Step Temp E_pair E_mol TotEng Press 
    5000    1612.0792   -7734.2071            0    -7317.452   -16.422598 
    5061    1612.0792   -8196.5977            0   -7779.8425   -82806.022 
Loop time of 0.546136 on 1 procs for 61 steps with 2001 atoms

92.9% CPU use with 1 MPI tasks x no OpenMP threads

Minimization stats:
  Stopping criterion = energy tolerance
  Energy initial, next-to-last, final = 
        -7734.20714884     -8196.59772801     -8196.59773495
  Force two-norm initial, final = 81.2076 0.0132978
  Force max component initial, final = 5.55659 0.00814234
  Final line search alpha, max atom move = 1 0.00814234
  Iterations, force evaluations = 61 109

MPI task timing breakdown:
Section |  min time  |  avg time  |  max time  |%varavg| %total
---------------------------------------------------------------
Pair    | 0.53332    | 0.53332    | 0.53332    |   0.0 | 97.65
Neigh   | 0.0051649  | 0.0051649  | 0.0051649  |   0.0 |  0.95
Comm    | 0.0026021  | 0.0026021  | 0.0026021  |   0.0 |  0.48
Output  | 0          | 0          | 0          |   0.0 |  0.00
Modify  | 0          | 0          | 0          |   0.0 |  0.00
Other   |            | 0.005051   |            |       |  0.92

Nlocal:    2001 ave 2001 max 2001 min
Histogram: 1 0 0 0 0 0 0 0 0 0
Nghost:    4804 ave 4804 max 4804 min
Histogram: 1 0 0 0 0 0 0 0 0 0
Neighs:    136091 ave 136091 max 136091 min
Histogram: 1 0 0 0 0 0 0 0 0 0

Total # of neighbors = 136091
Ave neighs/atom = 68.0115
Neighbor list builds = 1
Dangerous builds = 0
compute cna all cna/atom 3.45
compute 2 all reduce sum c_cna
thermo_style    custom step temp pe c_2
run 0
WARNING: No fixes defined, atoms won't move (../verlet.cpp:52)
Neighbor list info ...
  update every 1 steps, delay 10 steps, check yes
  max neighbors/atom: 2000, page size: 100000
  master list distance cutoff = 7.3
  ghost atom cutoff = 7.3
  binsize = 3.65, bins = 8 8 8
  2 neighbor lists, perpetual/occasional/extra = 1 1 0
  (1) pair eam/fs, perpetual
      attributes: half, newton on
      pair build: half/bin/atomonly/newton
      stencil: half/bin/3d/newton
      bin: standard
  (2) compute cna/atom, occasional
      attributes: full, newton on
      pair build: full/bin/atomonly
      stencil: full/bin/3d
      bin: standard
Per MPI rank memory allocation (min/avg/max) = 4.419 | 4.419 | 4.419 Mbytes
Step Temp PotEng c_2 
    5061    1612.0792   -8196.5977         6039 
Loop time of 1.19209e-06 on 1 procs for 0 steps with 2001 atoms

83.9% CPU use with 1 MPI tasks x no OpenMP threads

MPI task timing breakdown:
Section |  min time  |  avg time  |  max time  |%varavg| %total
---------------------------------------------------------------
Pair    | 0          | 0          | 0          |   0.0 |  0.00
Neigh   | 0          | 0          | 0          |   0.0 |  0.00
Comm    | 0          | 0          | 0          |   0.0 |  0.00
Output  | 0          | 0          | 0          |   0.0 |  0.00
Modify  | 0          | 0          | 0          |   0.0 |  0.00
Other   |            | 1.192e-06  |            |       |100.00

Nlocal:    2001 ave 2001 max 2001 min
Histogram: 1 0 0 0 0 0 0 0 0 0
Nghost:    5462 ave 5462 max 5462 min
Histogram: 1 0 0 0 0 0 0 0 0 0
Neighs:    136111 ave 136111 max 136111 min
Histogram: 1 0 0 0 0 0 0 0 0 0
FullNghs:  272222 ave 272222 max 272222 min
Histogram: 1 0 0 0 0 0 0 0 0 0

Total # of neighbors = 272222
Ave neighs/atom = 136.043
Neighbor list builds = 0
Dangerous builds = 0
#------------------------------------------------
variable cnat atom "c_cna != 3.0"
group sia_surround variable cnat
18 atoms in group sia_surround
dump		after_min_sia sia_surround custom 1 ./data/dumps_$t/surr_sia.dump x y z
dump		after_min_sia sia_surround custom 1 ./data/dumps_1700/surr_sia.dump x y z
dump_modify after_min_sia append yes

compute comV sia_surround com
compute med_x sia_surround reduce ave x
compute med_y sia_surround reduce ave y
compute med_z sia_surround reduce ave z
thermo_style custom step temp pe c_comV[1] c_comV[2] c_comV[3] c_med_x c_med_y c_med_z
run 0
WARNING: No fixes defined, atoms won't move (../verlet.cpp:52)
Per MPI rank memory allocation (min/avg/max) = 7.623 | 7.623 | 7.623 Mbytes
Step Temp PotEng c_comV[1] c_comV[2] c_comV[3] c_med_x c_med_y c_med_z 
    5061    1612.0792   -8196.5977    5.8354166    14.575939    14.575893    5.8354166    14.575939    14.575893 
Loop time of 9.53674e-07 on 1 procs for 0 steps with 2001 atoms

104.9% CPU use with 1 MPI tasks x no OpenMP threads

MPI task timing breakdown:
Section |  min time  |  avg time  |  max time  |%varavg| %total
---------------------------------------------------------------
Pair    | 0          | 0          | 0          |   0.0 |  0.00
Neigh   | 0          | 0          | 0          |   0.0 |  0.00
Comm    | 0          | 0          | 0          |   0.0 |  0.00
Output  | 0          | 0          | 0          |   0.0 |  0.00
Modify  | 0          | 0          | 0          |   0.0 |  0.00
Other   |            | 9.537e-07  |            |       |100.00

Nlocal:    2001 ave 2001 max 2001 min
Histogram: 1 0 0 0 0 0 0 0 0 0
Nghost:    5462 ave 5462 max 5462 min
Histogram: 1 0 0 0 0 0 0 0 0 0
Neighs:    136111 ave 136111 max 136111 min
Histogram: 1 0 0 0 0 0 0 0 0 0
FullNghs:  272222 ave 272222 max 272222 min
Histogram: 1 0 0 0 0 0 0 0 0 0

Total # of neighbors = 272222
Ave neighs/atom = 136.043
Neighbor list builds = 0
Dangerous builds = 0
variable comX equal c_comV[1]
variable comY equal c_comV[2]
variable comZ equal c_comV[3]
variable med_x equal c_med_x
variable med_y equal c_med_y
variable med_z equal c_med_z
variable time equal ${time_step}/1000
variable time equal 5000/1000
variable ts equal time
print "${time};${comX};${comY};${comZ}" append ./data/other_$t/coords
print "${time};${comX};${comY};${comZ}" append ./data/other_1700/coords
5;5.83541659547296;14.5759393920875;14.5758933070912
print "${time};${med_x};${med_y};${med_z}" append ./data/other_$t/unw_coords
print "${time};${med_x};${med_y};${med_z}" append ./data/other_1700/unw_coords
5;5.83541659547297;14.5759393920875;14.5758933070912
clear
shell rm ./data/restarts_$t/${time_step}
shell rm ./data/restarts_1700/${time_step}
shell rm ./data/restarts_1700/5000
next i
jump r2d.lmp
# -var l 2.8712 -var t 700
# -var l 2.8947 -var t 1300
# -var l 2.9151 -var t 1700
#------------------------------------------------
variable i loop 0 10000 #число рестартов
variable time_step equal 1000*$i
variable time_step equal 1000*6
variable time_step_previous equal 1000*$i-1000
variable time_step_previous equal 1000*6-1000
# shell rm ./data/restarts_$t/${time_step_previous}
shell while [ ! -f ./data/restarts_$t/${time_step} ]; do sleep 0.5; done  #ждет, пока не создастся след рестарт
shell while [ ! -f ./data/restarts_1700/${time_step} ]; do sleep 0.5; done  
shell while [ ! -f ./data/restarts_1700/6000 ]; do sleep 0.5; done  
# variable time_step_previous equal 1000*$i-1000
#------------------------------------------------
read_restart ./data/restarts_$t/${time_step}
read_restart ./data/restarts_1700/${time_step}
read_restart ./data/restarts_1700/6000
  restoring atom style atomic from restart
  orthogonal box = (0 0 0) to (29.151 29.151 29.151)
  1 by 1 by 1 MPI processor grid
  pair style eam/fs stores no restart info
  2001 atoms
  read_restart CPU = 0.000386 secs
pair_style      eam/fs
pair_coeff      * * ../Fe_mm.eam.fs Fe
Reading potential file ../Fe_mm.eam.fs with DATE: 2007-06-11
min_style cg
minimize 1e-9 1e-9 5000 5000
WARNING: Using 'neigh_modify every 1 delay 0 check yes' setting during minimization (../min.cpp:168)
Unused restart file peratom fix info:
  fix style: STORE, fix ID: msd_COMPUTE_STORE
Neighbor list info ...
  update every 1 steps, delay 0 steps, check yes
  max neighbors/atom: 2000, page size: 100000
  master list distance cutoff = 7.3
  ghost atom cutoff = 7.3
  binsize = 3.65, bins = 8 8 8
  1 neighbor lists, perpetual/occasional/extra = 1 0 0
  (1) pair eam/fs, perpetual
      attributes: half, newton on
      pair build: half/bin/atomonly/newton
      stencil: half/bin/3d/newton
      bin: standard
Per MPI rank memory allocation (min/avg/max) = 4.691 | 4.691 | 4.691 Mbytes
Step Temp E_pair E_mol TotEng Press 
    6000    1651.6752   -7744.4475            0    -7317.456   -2171.1886 
    6048    1651.6752   -8196.5977            0   -7769.6062   -82364.658 
Loop time of 0.347237 on 1 procs for 48 steps with 2001 atoms

99.6% CPU use with 1 MPI tasks x no OpenMP threads

Minimization stats:
  Stopping criterion = energy tolerance
  Energy initial, next-to-last, final = 
         -7744.4475429      -8196.5977322     -8196.59773862
  Force two-norm initial, final = 82.2734 0.0116525
  Force max component initial, final = 4.3197 0.00456067
  Final line search alpha, max atom move = 1 0.00456067
  Iterations, force evaluations = 48 83

MPI task timing breakdown:
Section |  min time  |  avg time  |  max time  |%varavg| %total
---------------------------------------------------------------
Pair    | 0.34135    | 0.34135    | 0.34135    |   0.0 | 98.31
Neigh   | 0          | 0          | 0          |   0.0 |  0.00
Comm    | 0.0020037  | 0.0020037  | 0.0020037  |   0.0 |  0.58
Output  | 0          | 0          | 0          |   0.0 |  0.00
Modify  | 0          | 0          | 0          |   0.0 |  0.00
Other   |            | 0.003881   |            |       |  1.12

Nlocal:    2001 ave 2001 max 2001 min
Histogram: 1 0 0 0 0 0 0 0 0 0
Nghost:    4768 ave 4768 max 4768 min
Histogram: 1 0 0 0 0 0 0 0 0 0
Neighs:    133889 ave 133889 max 133889 min
Histogram: 1 0 0 0 0 0 0 0 0 0

Total # of neighbors = 133889
Ave neighs/atom = 66.911
Neighbor list builds = 0
Dangerous builds = 0
compute cna all cna/atom 3.45
compute 2 all reduce sum c_cna
thermo_style    custom step temp pe c_2
run 0
WARNING: No fixes defined, atoms won't move (../verlet.cpp:52)
Neighbor list info ...
  update every 1 steps, delay 10 steps, check yes
  max neighbors/atom: 2000, page size: 100000
  master list distance cutoff = 7.3
  ghost atom cutoff = 7.3
  binsize = 3.65, bins = 8 8 8
  2 neighbor lists, perpetual/occasional/extra = 1 1 0
  (1) pair eam/fs, perpetual
      attributes: half, newton on
      pair build: half/bin/atomonly/newton
      stencil: half/bin/3d/newton
      bin: standard
  (2) compute cna/atom, occasional
      attributes: full, newton on
      pair build: full/bin/atomonly
      stencil: full/bin/3d
      bin: standard
Per MPI rank memory allocation (min/avg/max) = 4.422 | 4.422 | 4.422 Mbytes
Step Temp PotEng c_2 
    6048    1651.6752   -8196.5977         6039 
Loop time of 9.53674e-07 on 1 procs for 0 steps with 2001 atoms

104.9% CPU use with 1 MPI tasks x no OpenMP threads

MPI task timing breakdown:
Section |  min time  |  avg time  |  max time  |%varavg| %total
---------------------------------------------------------------
Pair    | 0          | 0          | 0          |   0.0 |  0.00
Neigh   | 0          | 0          | 0          |   0.0 |  0.00
Comm    | 0          | 0          | 0          |   0.0 |  0.00
Output  | 0          | 0          | 0          |   0.0 |  0.00
Modify  | 0          | 0          | 0          |   0.0 |  0.00
Other   |            | 9.537e-07  |            |       |100.00

Nlocal:    2001 ave 2001 max 2001 min
Histogram: 1 0 0 0 0 0 0 0 0 0
Nghost:    5398 ave 5398 max 5398 min
Histogram: 1 0 0 0 0 0 0 0 0 0
Neighs:    136111 ave 136111 max 136111 min
Histogram: 1 0 0 0 0 0 0 0 0 0
FullNghs:  272222 ave 272222 max 272222 min
Histogram: 1 0 0 0 0 0 0 0 0 0

Total # of neighbors = 272222
Ave neighs/atom = 136.043
Neighbor list builds = 0
Dangerous builds = 0
#------------------------------------------------
variable cnat atom "c_cna != 3.0"
group sia_surround variable cnat
18 atoms in group sia_surround
dump		after_min_sia sia_surround custom 1 ./data/dumps_$t/surr_sia.dump x y z
dump		after_min_sia sia_surround custom 1 ./data/dumps_1700/surr_sia.dump x y z
dump_modify after_min_sia append yes

compute comV sia_surround com
compute med_x sia_surround reduce ave x
compute med_y sia_surround reduce ave y
compute med_z sia_surround reduce ave z
thermo_style custom step temp pe c_comV[1] c_comV[2] c_comV[3] c_med_x c_med_y c_med_z
run 0
WARNING: No fixes defined, atoms won't move (../verlet.cpp:52)
Per MPI rank memory allocation (min/avg/max) = 7.625 | 7.625 | 7.625 Mbytes
Step Temp PotEng c_comV[1] c_comV[2] c_comV[3] c_med_x c_med_y c_med_z 
    6048    1651.6752   -8196.5977    9.7250658    11.662246     17.48963    11.344566    11.662246     17.48963 
Loop time of 9.53674e-07 on 1 procs for 0 steps with 2001 atoms

209.7% CPU use with 1 MPI tasks x no OpenMP threads

MPI task timing breakdown:
Section |  min time  |  avg time  |  max time  |%varavg| %total
---------------------------------------------------------------
Pair    | 0          | 0          | 0          |   0.0 |  0.00
Neigh   | 0          | 0          | 0          |   0.0 |  0.00
Comm    | 0          | 0          | 0          |   0.0 |  0.00
Output  | 0          | 0          | 0          |   0.0 |  0.00
Modify  | 0          | 0          | 0          |   0.0 |  0.00
Other   |            | 9.537e-07  |            |       |100.00

Nlocal:    2001 ave 2001 max 2001 min
Histogram: 1 0 0 0 0 0 0 0 0 0
Nghost:    5398 ave 5398 max 5398 min
Histogram: 1 0 0 0 0 0 0 0 0 0
Neighs:    136111 ave 136111 max 136111 min
Histogram: 1 0 0 0 0 0 0 0 0 0
FullNghs:  272222 ave 272222 max 272222 min
Histogram: 1 0 0 0 0 0 0 0 0 0

Total # of neighbors = 272222
Ave neighs/atom = 136.043
Neighbor list builds = 0
Dangerous builds = 0
variable comX equal c_comV[1]
variable comY equal c_comV[2]
variable comZ equal c_comV[3]
variable med_x equal c_med_x
variable med_y equal c_med_y
variable med_z equal c_med_z
variable time equal ${time_step}/1000
variable time equal 6000/1000
variable ts equal time
print "${time};${comX};${comY};${comZ}" append ./data/other_$t/coords
print "${time};${comX};${comY};${comZ}" append ./data/other_1700/coords
6;9.725065825003;11.6622459071679;17.4896304627969
print "${time};${med_x};${med_y};${med_z}" append ./data/other_$t/unw_coords
print "${time};${med_x};${med_y};${med_z}" append ./data/other_1700/unw_coords
6;11.344565825003;11.6622459071679;17.4896304627969
clear
shell rm ./data/restarts_$t/${time_step}
shell rm ./data/restarts_1700/${time_step}
shell rm ./data/restarts_1700/6000
next i
jump r2d.lmp
# -var l 2.8712 -var t 700
# -var l 2.8947 -var t 1300
# -var l 2.9151 -var t 1700
#------------------------------------------------
variable i loop 0 10000 #число рестартов
variable time_step equal 1000*$i
variable time_step equal 1000*7
variable time_step_previous equal 1000*$i-1000
variable time_step_previous equal 1000*7-1000
# shell rm ./data/restarts_$t/${time_step_previous}
shell while [ ! -f ./data/restarts_$t/${time_step} ]; do sleep 0.5; done  #ждет, пока не создастся след рестарт
shell while [ ! -f ./data/restarts_1700/${time_step} ]; do sleep 0.5; done  
shell while [ ! -f ./data/restarts_1700/7000 ]; do sleep 0.5; done  
# variable time_step_previous equal 1000*$i-1000
#------------------------------------------------
read_restart ./data/restarts_$t/${time_step}
read_restart ./data/restarts_1700/${time_step}
read_restart ./data/restarts_1700/7000
  restoring atom style atomic from restart
  orthogonal box = (0 0 0) to (29.151 29.151 29.151)
  1 by 1 by 1 MPI processor grid
  pair style eam/fs stores no restart info
  2001 atoms
  read_restart CPU = 0.0003438 secs
pair_style      eam/fs
pair_coeff      * * ../Fe_mm.eam.fs Fe
Reading potential file ../Fe_mm.eam.fs with DATE: 2007-06-11
min_style cg
minimize 1e-9 1e-9 5000 5000
WARNING: Using 'neigh_modify every 1 delay 0 check yes' setting during minimization (../min.cpp:168)
Unused restart file peratom fix info:
  fix style: STORE, fix ID: msd_COMPUTE_STORE
Neighbor list info ...
  update every 1 steps, delay 0 steps, check yes
  max neighbors/atom: 2000, page size: 100000
  master list distance cutoff = 7.3
  ghost atom cutoff = 7.3
  binsize = 3.65, bins = 8 8 8
  1 neighbor lists, perpetual/occasional/extra = 1 0 0
  (1) pair eam/fs, perpetual
      attributes: half, newton on
      pair build: half/bin/atomonly/newton
      stencil: half/bin/3d/newton
      bin: standard
Per MPI rank memory allocation (min/avg/max) = 4.661 | 4.661 | 4.661 Mbytes
Step Temp E_pair E_mol TotEng Press 
    7000    1640.2593    -7741.495            0   -7317.4547   -2815.0354 
    7056    1640.2593   -8196.5977            0   -7772.5574   -82491.697 
Loop time of 0.398746 on 1 procs for 56 steps with 2001 atoms

99.3% CPU use with 1 MPI tasks x no OpenMP threads

Minimization stats:
  Stopping criterion = energy tolerance
  Energy initial, next-to-last, final = 
        -7741.49503212     -8196.59773072     -8196.59773586
  Force two-norm initial, final = 82.4349 0.00926236
  Force max component initial, final = 4.48841 0.00244831
  Final line search alpha, max atom move = 1 0.00244831
  Iterations, force evaluations = 56 95

MPI task timing breakdown:
Section |  min time  |  avg time  |  max time  |%varavg| %total
---------------------------------------------------------------
Pair    | 0.3921     | 0.3921     | 0.3921     |   0.0 | 98.33
Neigh   | 0          | 0          | 0          |   0.0 |  0.00
Comm    | 0.0021665  | 0.0021665  | 0.0021665  |   0.0 |  0.54
Output  | 0          | 0          | 0          |   0.0 |  0.00
Modify  | 0          | 0          | 0          |   0.0 |  0.00
Other   |            | 0.004478   |            |       |  1.12

Nlocal:    2001 ave 2001 max 2001 min
Histogram: 1 0 0 0 0 0 0 0 0 0
Nghost:    4748 ave 4748 max 4748 min
Histogram: 1 0 0 0 0 0 0 0 0 0
Neighs:    133931 ave 133931 max 133931 min
Histogram: 1 0 0 0 0 0 0 0 0 0

Total # of neighbors = 133931
Ave neighs/atom = 66.932
Neighbor list builds = 0
Dangerous builds = 0
compute cna all cna/atom 3.45
compute 2 all reduce sum c_cna
thermo_style    custom step temp pe c_2
run 0
WARNING: No fixes defined, atoms won't move (../verlet.cpp:52)
Neighbor list info ...
  update every 1 steps, delay 10 steps, check yes
  max neighbors/atom: 2000, page size: 100000
  master list distance cutoff = 7.3
  ghost atom cutoff = 7.3
  binsize = 3.65, bins = 8 8 8
  2 neighbor lists, perpetual/occasional/extra = 1 1 0
  (1) pair eam/fs, perpetual
      attributes: half, newton on
      pair build: half/bin/atomonly/newton
      stencil: half/bin/3d/newton
      bin: standard
  (2) compute cna/atom, occasional
      attributes: full, newton on
      pair build: full/bin/atomonly
      stencil: full/bin/3d
      bin: standard
Per MPI rank memory allocation (min/avg/max) = 4.432 | 4.432 | 4.432 Mbytes
Step Temp PotEng c_2 
    7056    1640.2593   -8196.5977         6039 
Loop time of 9.53674e-07 on 1 procs for 0 steps with 2001 atoms

209.7% CPU use with 1 MPI tasks x no OpenMP threads

MPI task timing breakdown:
Section |  min time  |  avg time  |  max time  |%varavg| %total
---------------------------------------------------------------
Pair    | 0          | 0          | 0          |   0.0 |  0.00
Neigh   | 0          | 0          | 0          |   0.0 |  0.00
Comm    | 0          | 0          | 0          |   0.0 |  0.00
Output  | 0          | 0          | 0          |   0.0 |  0.00
Modify  | 0          | 0          | 0          |   0.0 |  0.00
Other   |            | 9.537e-07  |            |       |100.00

Nlocal:    2001 ave 2001 max 2001 min
Histogram: 1 0 0 0 0 0 0 0 0 0
Nghost:    5421 ave 5421 max 5421 min
Histogram: 1 0 0 0 0 0 0 0 0 0
Neighs:    136111 ave 136111 max 136111 min
Histogram: 1 0 0 0 0 0 0 0 0 0
FullNghs:  272222 ave 272222 max 272222 min
Histogram: 1 0 0 0 0 0 0 0 0 0

Total # of neighbors = 272222
Ave neighs/atom = 136.043
Neighbor list builds = 0
Dangerous builds = 0
#------------------------------------------------
variable cnat atom "c_cna != 3.0"
group sia_surround variable cnat
18 atoms in group sia_surround
dump		after_min_sia sia_surround custom 1 ./data/dumps_$t/surr_sia.dump x y z
dump		after_min_sia sia_surround custom 1 ./data/dumps_1700/surr_sia.dump x y z
dump_modify after_min_sia append yes

compute comV sia_surround com
compute med_x sia_surround reduce ave x
compute med_y sia_surround reduce ave y
compute med_z sia_surround reduce ave z
thermo_style custom step temp pe c_comV[1] c_comV[2] c_comV[3] c_med_x c_med_y c_med_z
run 0
WARNING: No fixes defined, atoms won't move (../verlet.cpp:52)
Per MPI rank memory allocation (min/avg/max) = 7.636 | 7.636 | 7.636 Mbytes
Step Temp PotEng c_comV[1] c_comV[2] c_comV[3] c_med_x c_med_y c_med_z 
    7056    1640.2593   -8196.5977    4.3785926    7.2917496    21.859983    4.3785926    7.2917496    21.859983 
Loop time of 1.19209e-06 on 1 procs for 0 steps with 2001 atoms

167.8% CPU use with 1 MPI tasks x no OpenMP threads

MPI task timing breakdown:
Section |  min time  |  avg time  |  max time  |%varavg| %total
---------------------------------------------------------------
Pair    | 0          | 0          | 0          |   0.0 |  0.00
Neigh   | 0          | 0          | 0          |   0.0 |  0.00
Comm    | 0          | 0          | 0          |   0.0 |  0.00
Output  | 0          | 0          | 0          |   0.0 |  0.00
Modify  | 0          | 0          | 0          |   0.0 |  0.00
Other   |            | 1.192e-06  |            |       |100.00

Nlocal:    2001 ave 2001 max 2001 min
Histogram: 1 0 0 0 0 0 0 0 0 0
Nghost:    5421 ave 5421 max 5421 min
Histogram: 1 0 0 0 0 0 0 0 0 0
Neighs:    136111 ave 136111 max 136111 min
Histogram: 1 0 0 0 0 0 0 0 0 0
FullNghs:  272222 ave 272222 max 272222 min
Histogram: 1 0 0 0 0 0 0 0 0 0

Total # of neighbors = 272222
Ave neighs/atom = 136.043
Neighbor list builds = 0
Dangerous builds = 0
variable comX equal c_comV[1]
variable comY equal c_comV[2]
variable comZ equal c_comV[3]
variable med_x equal c_med_x
variable med_y equal c_med_y
variable med_z equal c_med_z
variable time equal ${time_step}/1000
variable time equal 7000/1000
variable ts equal time
print "${time};${comX};${comY};${comZ}" append ./data/other_$t/coords
print "${time};${comX};${comY};${comZ}" append ./data/other_1700/coords
7;4.37859256748795;7.2917496488813;21.8599826261701
print "${time};${med_x};${med_y};${med_z}" append ./data/other_$t/unw_coords
print "${time};${med_x};${med_y};${med_z}" append ./data/other_1700/unw_coords
7;4.37859256748795;7.2917496488813;21.8599826261701
clear
shell rm ./data/restarts_$t/${time_step}
shell rm ./data/restarts_1700/${time_step}
shell rm ./data/restarts_1700/7000
next i
jump r2d.lmp
# -var l 2.8712 -var t 700
# -var l 2.8947 -var t 1300
# -var l 2.9151 -var t 1700
#------------------------------------------------
variable i loop 0 10000 #число рестартов
variable time_step equal 1000*$i
variable time_step equal 1000*8
variable time_step_previous equal 1000*$i-1000
variable time_step_previous equal 1000*8-1000
# shell rm ./data/restarts_$t/${time_step_previous}
shell while [ ! -f ./data/restarts_$t/${time_step} ]; do sleep 0.5; done  #ждет, пока не создастся след рестарт
shell while [ ! -f ./data/restarts_1700/${time_step} ]; do sleep 0.5; done  
shell while [ ! -f ./data/restarts_1700/8000 ]; do sleep 0.5; done  
# variable time_step_previous equal 1000*$i-1000
#------------------------------------------------
read_restart ./data/restarts_$t/${time_step}
read_restart ./data/restarts_1700/${time_step}
read_restart ./data/restarts_1700/8000
  restoring atom style atomic from restart
  orthogonal box = (0 0 0) to (29.151 29.151 29.151)
  1 by 1 by 1 MPI processor grid
  pair style eam/fs stores no restart info
  2001 atoms
  read_restart CPU = 0.000308037 secs
pair_style      eam/fs
pair_coeff      * * ../Fe_mm.eam.fs Fe
Reading potential file ../Fe_mm.eam.fs with DATE: 2007-06-11
min_style cg
minimize 1e-9 1e-9 5000 5000
WARNING: Using 'neigh_modify every 1 delay 0 check yes' setting during minimization (../min.cpp:168)
Unused restart file peratom fix info:
  fix style: STORE, fix ID: msd_COMPUTE_STORE
Neighbor list info ...
  update every 1 steps, delay 0 steps, check yes
  max neighbors/atom: 2000, page size: 100000
  master list distance cutoff = 7.3
  ghost atom cutoff = 7.3
  binsize = 3.65, bins = 8 8 8
  1 neighbor lists, perpetual/occasional/extra = 1 0 0
  (1) pair eam/fs, perpetual
      attributes: half, newton on
      pair build: half/bin/atomonly/newton
      stencil: half/bin/3d/newton
      bin: standard
Per MPI rank memory allocation (min/avg/max) = 4.692 | 4.692 | 4.692 Mbytes
Step Temp E_pair E_mol TotEng Press 
    8000    1597.1287   -7730.3432            0    -7317.453    71.660607 
    8066    1597.1287   -8196.3282            0    -7783.438   -82899.671 
Loop time of 0.575126 on 1 procs for 66 steps with 2001 atoms

92.6% CPU use with 1 MPI tasks x no OpenMP threads

Minimization stats:
  Stopping criterion = energy tolerance
  Energy initial, next-to-last, final = 
         -7730.3431772     -8196.32817804     -8196.32818367
  Force two-norm initial, final = 82.9094 0.0121116
  Force max component initial, final = 4.32086 0.00476637
  Final line search alpha, max atom move = 1 0.00476637
  Iterations, force evaluations = 66 118

MPI task timing breakdown:
Section |  min time  |  avg time  |  max time  |%varavg| %total
---------------------------------------------------------------
Pair    | 0.56234    | 0.56234    | 0.56234    |   0.0 | 97.78
Neigh   | 0.0039542  | 0.0039542  | 0.0039542  |   0.0 |  0.69
Comm    | 0.0030584  | 0.0030584  | 0.0030584  |   0.0 |  0.53
Output  | 0          | 0          | 0          |   0.0 |  0.00
Modify  | 0          | 0          | 0          |   0.0 |  0.00
Other   |            | 0.005778   |            |       |  1.00

Nlocal:    2001 ave 2001 max 2001 min
Histogram: 1 0 0 0 0 0 0 0 0 0
Nghost:    5170 ave 5170 max 5170 min
Histogram: 1 0 0 0 0 0 0 0 0 0
Neighs:    136091 ave 136091 max 136091 min
Histogram: 1 0 0 0 0 0 0 0 0 0

Total # of neighbors = 136091
Ave neighs/atom = 68.0115
Neighbor list builds = 1
Dangerous builds = 0
compute cna all cna/atom 3.45
compute 2 all reduce sum c_cna
thermo_style    custom step temp pe c_2
run 0
WARNING: No fixes defined, atoms won't move (../verlet.cpp:52)
Neighbor list info ...
  update every 1 steps, delay 10 steps, check yes
  max neighbors/atom: 2000, page size: 100000
  master list distance cutoff = 7.3
  ghost atom cutoff = 7.3
  binsize = 3.65, bins = 8 8 8
  2 neighbor lists, perpetual/occasional/extra = 1 1 0
  (1) pair eam/fs, perpetual
      attributes: half, newton on
      pair build: half/bin/atomonly/newton
      stencil: half/bin/3d/newton
      bin: standard
  (2) compute cna/atom, occasional
      attributes: full, newton on
      pair build: full/bin/atomonly
      stencil: full/bin/3d
      bin: standard
Per MPI rank memory allocation (min/avg/max) = 4.422 | 4.422 | 4.422 Mbytes
Step Temp PotEng c_2 
    8066    1597.1287   -8196.3282         6049 
Loop time of 1.19209e-06 on 1 procs for 0 steps with 2001 atoms

83.9% CPU use with 1 MPI tasks x no OpenMP threads

MPI task timing breakdown:
Section |  min time  |  avg time  |  max time  |%varavg| %total
---------------------------------------------------------------
Pair    | 0          | 0          | 0          |   0.0 |  0.00
Neigh   | 0          | 0          | 0          |   0.0 |  0.00
Comm    | 0          | 0          | 0          |   0.0 |  0.00
Output  | 0          | 0          | 0          |   0.0 |  0.00
Modify  | 0          | 0          | 0          |   0.0 |  0.00
Other   |            | 1.192e-06  |            |       |100.00

Nlocal:    2001 ave 2001 max 2001 min
Histogram: 1 0 0 0 0 0 0 0 0 0
Nghost:    5436 ave 5436 max 5436 min
Histogram: 1 0 0 0 0 0 0 0 0 0
Neighs:    136092 ave 136092 max 136092 min
Histogram: 1 0 0 0 0 0 0 0 0 0
FullNghs:  272184 ave 272184 max 272184 min
Histogram: 1 0 0 0 0 0 0 0 0 0

Total # of neighbors = 272184
Ave neighs/atom = 136.024
Neighbor list builds = 0
Dangerous builds = 0
#------------------------------------------------
variable cnat atom "c_cna != 3.0"
group sia_surround variable cnat
23 atoms in group sia_surround
dump		after_min_sia sia_surround custom 1 ./data/dumps_$t/surr_sia.dump x y z
dump		after_min_sia sia_surround custom 1 ./data/dumps_1700/surr_sia.dump x y z
dump_modify after_min_sia append yes

compute comV sia_surround com
compute med_x sia_surround reduce ave x
compute med_y sia_surround reduce ave y
compute med_z sia_surround reduce ave z
thermo_style custom step temp pe c_comV[1] c_comV[2] c_comV[3] c_med_x c_med_y c_med_z
run 0
WARNING: No fixes defined, atoms won't move (../verlet.cpp:52)
Per MPI rank memory allocation (min/avg/max) = 7.626 | 7.626 | 7.626 Mbytes
Step Temp PotEng c_comV[1] c_comV[2] c_comV[3] c_med_x c_med_y c_med_z 
    8066    1597.1287   -8196.3282    5.1060166     10.66916    22.851624    5.1060166     10.66916    22.851624 
Loop time of 1.19209e-06 on 1 procs for 0 steps with 2001 atoms

83.9% CPU use with 1 MPI tasks x no OpenMP threads

MPI task timing breakdown:
Section |  min time  |  avg time  |  max time  |%varavg| %total
---------------------------------------------------------------
Pair    | 0          | 0          | 0          |   0.0 |  0.00
Neigh   | 0          | 0          | 0          |   0.0 |  0.00
Comm    | 0          | 0          | 0          |   0.0 |  0.00
Output  | 0          | 0          | 0          |   0.0 |  0.00
Modify  | 0          | 0          | 0          |   0.0 |  0.00
Other   |            | 1.192e-06  |            |       |100.00

Nlocal:    2001 ave 2001 max 2001 min
Histogram: 1 0 0 0 0 0 0 0 0 0
Nghost:    5436 ave 5436 max 5436 min
Histogram: 1 0 0 0 0 0 0 0 0 0
Neighs:    136092 ave 136092 max 136092 min
Histogram: 1 0 0 0 0 0 0 0 0 0
FullNghs:  272184 ave 272184 max 272184 min
Histogram: 1 0 0 0 0 0 0 0 0 0

Total # of neighbors = 272184
Ave neighs/atom = 136.024
Neighbor list builds = 0
Dangerous builds = 0
variable comX equal c_comV[1]
variable comY equal c_comV[2]
variable comZ equal c_comV[3]
variable med_x equal c_med_x
variable med_y equal c_med_y
variable med_z equal c_med_z
variable time equal ${time_step}/1000
variable time equal 8000/1000
variable ts equal time
print "${time};${comX};${comY};${comZ}" append ./data/other_$t/coords
print "${time};${comX};${comY};${comZ}" append ./data/other_1700/coords
8;5.10601664672276;10.6691604114483;22.8516240028791
print "${time};${med_x};${med_y};${med_z}" append ./data/other_$t/unw_coords
print "${time};${med_x};${med_y};${med_z}" append ./data/other_1700/unw_coords
8;5.10601664672276;10.6691604114483;22.8516240028791
clear
shell rm ./data/restarts_$t/${time_step}
shell rm ./data/restarts_1700/${time_step}
shell rm ./data/restarts_1700/8000
next i
jump r2d.lmp
# -var l 2.8712 -var t 700
# -var l 2.8947 -var t 1300
# -var l 2.9151 -var t 1700
#------------------------------------------------
variable i loop 0 10000 #число рестартов
variable time_step equal 1000*$i
variable time_step equal 1000*9
variable time_step_previous equal 1000*$i-1000
variable time_step_previous equal 1000*9-1000
# shell rm ./data/restarts_$t/${time_step_previous}
shell while [ ! -f ./data/restarts_$t/${time_step} ]; do sleep 0.5; done  #ждет, пока не создастся след рестарт
shell while [ ! -f ./data/restarts_1700/${time_step} ]; do sleep 0.5; done  
shell while [ ! -f ./data/restarts_1700/9000 ]; do sleep 0.5; done  
# variable time_step_previous equal 1000*$i-1000
#------------------------------------------------
read_restart ./data/restarts_$t/${time_step}
read_restart ./data/restarts_1700/${time_step}
read_restart ./data/restarts_1700/9000
  restoring atom style atomic from restart
  orthogonal box = (0 0 0) to (29.151 29.151 29.151)
  1 by 1 by 1 MPI processor grid
  pair style eam/fs stores no restart info
  2001 atoms
  read_restart CPU = 0.000396967 secs
pair_style      eam/fs
pair_coeff      * * ../Fe_mm.eam.fs Fe
Reading potential file ../Fe_mm.eam.fs with DATE: 2007-06-11
min_style cg
minimize 1e-9 1e-9 5000 5000
WARNING: Using 'neigh_modify every 1 delay 0 check yes' setting during minimization (../min.cpp:168)
Unused restart file peratom fix info:
  fix style: STORE, fix ID: msd_COMPUTE_STORE
Neighbor list info ...
  update every 1 steps, delay 0 steps, check yes
  max neighbors/atom: 2000, page size: 100000
  master list distance cutoff = 7.3
  ghost atom cutoff = 7.3
  binsize = 3.65, bins = 8 8 8
  1 neighbor lists, perpetual/occasional/extra = 1 0 0
  (1) pair eam/fs, perpetual
      attributes: half, newton on
      pair build: half/bin/atomonly/newton
      stencil: half/bin/3d/newton
      bin: standard
Per MPI rank memory allocation (min/avg/max) = 4.686 | 4.686 | 4.686 Mbytes
Step Temp E_pair E_mol TotEng Press 
    9000    1649.2467     -7743.82            0   -7317.4563   -2304.9343 
    9053    1649.2467   -8196.5977            0    -7770.234   -82391.727 
Loop time of 0.384958 on 1 procs for 53 steps with 2001 atoms

99.3% CPU use with 1 MPI tasks x no OpenMP threads

Minimization stats:
  Stopping criterion = energy tolerance
  Energy initial, next-to-last, final = 
        -7743.81998565     -8196.59773688     -8196.59774143
  Force two-norm initial, final = 79.725 0.00751133
  Force max component initial, final = 4.00949 0.00209424
  Final line search alpha, max atom move = 1 0.00209424
  Iterations, force evaluations = 53 91

MPI task timing breakdown:
Section |  min time  |  avg time  |  max time  |%varavg| %total
---------------------------------------------------------------
Pair    | 0.37507    | 0.37507    | 0.37507    |   0.0 | 97.43
Neigh   | 0.0038469  | 0.0038469  | 0.0038469  |   0.0 |  1.00
Comm    | 0.0020599  | 0.0020599  | 0.0020599  |   0.0 |  0.54
Output  | 0          | 0          | 0          |   0.0 |  0.00
Modify  | 0          | 0          | 0          |   0.0 |  0.00
Other   |            | 0.003986   |            |       |  1.04

Nlocal:    2001 ave 2001 max 2001 min
Histogram: 1 0 0 0 0 0 0 0 0 0
Nghost:    5105 ave 5105 max 5105 min
Histogram: 1 0 0 0 0 0 0 0 0 0
Neighs:    136107 ave 136107 max 136107 min
Histogram: 1 0 0 0 0 0 0 0 0 0

Total # of neighbors = 136107
Ave neighs/atom = 68.0195
Neighbor list builds = 1
Dangerous builds = 0
compute cna all cna/atom 3.45
compute 2 all reduce sum c_cna
thermo_style    custom step temp pe c_2
run 0
WARNING: No fixes defined, atoms won't move (../verlet.cpp:52)
Neighbor list info ...
  update every 1 steps, delay 10 steps, check yes
  max neighbors/atom: 2000, page size: 100000
  master list distance cutoff = 7.3
  ghost atom cutoff = 7.3
  binsize = 3.65, bins = 8 8 8
  2 neighbor lists, perpetual/occasional/extra = 1 1 0
  (1) pair eam/fs, perpetual
      attributes: half, newton on
      pair build: half/bin/atomonly/newton
      stencil: half/bin/3d/newton
      bin: standard
  (2) compute cna/atom, occasional
      attributes: full, newton on
      pair build: full/bin/atomonly
      stencil: full/bin/3d
      bin: standard
Per MPI rank memory allocation (min/avg/max) = 4.417 | 4.417 | 4.417 Mbytes
Step Temp PotEng c_2 
    9053    1649.2467   -8196.5977         6039 
Loop time of 1.19209e-06 on 1 procs for 0 steps with 2001 atoms

83.9% CPU use with 1 MPI tasks x no OpenMP threads

MPI task timing breakdown:
Section |  min time  |  avg time  |  max time  |%varavg| %total
---------------------------------------------------------------
Pair    | 0          | 0          | 0          |   0.0 |  0.00
Neigh   | 0          | 0          | 0          |   0.0 |  0.00
Comm    | 0          | 0          | 0          |   0.0 |  0.00
Output  | 0          | 0          | 0          |   0.0 |  0.00
Modify  | 0          | 0          | 0          |   0.0 |  0.00
Other   |            | 1.192e-06  |            |       |100.00

Nlocal:    2001 ave 2001 max 2001 min
Histogram: 1 0 0 0 0 0 0 0 0 0
Nghost:    5321 ave 5321 max 5321 min
Histogram: 1 0 0 0 0 0 0 0 0 0
Neighs:    136111 ave 136111 max 136111 min
Histogram: 1 0 0 0 0 0 0 0 0 0
FullNghs:  272222 ave 272222 max 272222 min
Histogram: 1 0 0 0 0 0 0 0 0 0

Total # of neighbors = 272222
Ave neighs/atom = 136.043
Neighbor list builds = 0
Dangerous builds = 0
#------------------------------------------------
variable cnat atom "c_cna != 3.0"
group sia_surround variable cnat
18 atoms in group sia_surround
dump		after_min_sia sia_surround custom 1 ./data/dumps_$t/surr_sia.dump x y z
dump		after_min_sia sia_surround custom 1 ./data/dumps_1700/surr_sia.dump x y z
dump_modify after_min_sia append yes

compute comV sia_surround com
compute med_x sia_surround reduce ave x
compute med_y sia_surround reduce ave y
compute med_z sia_surround reduce ave z
thermo_style custom step temp pe c_comV[1] c_comV[2] c_comV[3] c_med_x c_med_y c_med_z
run 0
WARNING: No fixes defined, atoms won't move (../verlet.cpp:52)
Per MPI rank memory allocation (min/avg/max) = 7.62 | 7.62 | 7.62 Mbytes
Step Temp PotEng c_comV[1] c_comV[2] c_comV[3] c_med_x c_med_y c_med_z 
    9053    1649.2467   -8196.5977    24.788606    4.7036541    16.032811    24.788606    7.9426541    16.032811 
Loop time of 9.53674e-07 on 1 procs for 0 steps with 2001 atoms

[...]
  master list distance cutoff = 7.3
  ghost atom cutoff = 7.3
  binsize = 3.65, bins = 8 8 8
  2 neighbor lists, perpetual/occasional/extra = 1 1 0
  (1) pair eam/fs, perpetual
      attributes: half, newton on
      pair build: half/bin/atomonly/newton
      stencil: half/bin/3d/newton
      bin: standard
  (2) compute cna/atom, occasional
      attributes: full, newton on
      pair build: full/bin/atomonly
      stencil: full/bin/3d
      bin: standard
Per MPI rank memory allocation (min/avg/max) = 4.418 | 4.418 | 4.418 Mbytes
Step Temp PotEng c_2 
   98064    1591.2503   -8196.5977         6039 
Loop time of 9.53674e-07 on 1 procs for 0 steps with 2001 atoms

104.9% CPU use with 1 MPI tasks x no OpenMP threads

MPI task timing breakdown:
Section |  min time  |  avg time  |  max time  |%varavg| %total
---------------------------------------------------------------
Pair    | 0          | 0          | 0          |   0.0 |  0.00
Neigh   | 0          | 0          | 0          |   0.0 |  0.00
Comm    | 0          | 0          | 0          |   0.0 |  0.00
Output  | 0          | 0          | 0          |   0.0 |  0.00
Modify  | 0          | 0          | 0          |   0.0 |  0.00
Other   |            | 9.537e-07  |            |       |100.00

Nlocal:    2001 ave 2001 max 2001 min
Histogram: 1 0 0 0 0 0 0 0 0 0
Nghost:    5254 ave 5254 max 5254 min
Histogram: 1 0 0 0 0 0 0 0 0 0
Neighs:    136111 ave 136111 max 136111 min
Histogram: 1 0 0 0 0 0 0 0 0 0
FullNghs:  272222 ave 272222 max 272222 min
Histogram: 1 0 0 0 0 0 0 0 0 0

Total # of neighbors = 272222
Ave neighs/atom = 136.043
Neighbor list builds = 0
Dangerous builds = 0
#------------------------------------------------
variable cnat atom "c_cna != 3.0"
group sia_surround variable cnat
18 atoms in group sia_surround
dump		after_min_sia sia_surround custom 1 ./data/dumps_$t/surr_sia.dump x y z
dump		after_min_sia sia_surround custom 1 ./data/dumps_1700/surr_sia.dump x y z
dump_modify after_min_sia append yes

compute comV sia_surround com
compute med_x sia_surround reduce ave x
compute med_y sia_surround reduce ave y
compute med_z sia_surround reduce ave z
thermo_style custom step temp pe c_comV[1] c_comV[2] c_comV[3] c_med_x c_med_y c_med_z
run 0
WARNING: No fixes defined, atoms won't move (../verlet.cpp:52)
Per MPI rank memory allocation (min/avg/max) = 7.621 | 7.621 | 7.621 Mbytes
Step Temp PotEng c_comV[1] c_comV[2] c_comV[3] c_med_x c_med_y c_med_z 
   98064    1591.2503   -8196.5977    17.504748     8.090961     17.50406    17.504748    21.046961     17.50406 
Loop time of 9.53674e-07 on 1 procs for 0 steps with 2001 atoms

104.9% CPU use with 1 MPI tasks x no OpenMP threads

MPI task timing breakdown:
Section |  min time  |  avg time  |  max time  |%varavg| %total
---------------------------------------------------------------
Pair    | 0          | 0          | 0          |   0.0 |  0.00
Neigh   | 0          | 0          | 0          |   0.0 |  0.00
Comm    | 0          | 0          | 0          |   0.0 |  0.00
Output  | 0          | 0          | 0          |   0.0 |  0.00
Modify  | 0          | 0          | 0          |   0.0 |  0.00
Other   |            | 9.537e-07  |            |       |100.00

Nlocal:    2001 ave 2001 max 2001 min
Histogram: 1 0 0 0 0 0 0 0 0 0
Nghost:    5254 ave 5254 max 5254 min
Histogram: 1 0 0 0 0 0 0 0 0 0
Neighs:    136111 ave 136111 max 136111 min
Histogram: 1 0 0 0 0 0 0 0 0 0
FullNghs:  272222 ave 272222 max 272222 min
Histogram: 1 0 0 0 0 0 0 0 0 0

Total # of neighbors = 272222
Ave neighs/atom = 136.043
Neighbor list builds = 0
Dangerous builds = 0
variable comX equal c_comV[1]
variable comY equal c_comV[2]
variable comZ equal c_comV[3]
variable med_x equal c_med_x
variable med_y equal c_med_y
variable med_z equal c_med_z
variable time equal ${time_step}/1000
variable time equal 98000/1000
variable ts equal time
print "${time};${comX};${comY};${comZ}" append ./data/other_$t/coords
print "${time};${comX};${comY};${comZ}" append ./data/other_1700/coords
98;17.5047475906831;8.09096103350403;17.5040596916301
print "${time};${med_x};${med_y};${med_z}" append ./data/other_$t/unw_coords
print "${time};${med_x};${med_y};${med_z}" append ./data/other_1700/unw_coords
98;17.5047475906831;21.046961033504;17.5040596916301
clear
shell rm ./data/restarts_$t/${time_step}
shell rm ./data/restarts_1700/${time_step}
shell rm ./data/restarts_1700/98000
next i
jump r2d.lmp
# -var l 2.8712 -var t 700
# -var l 2.8947 -var t 1300
# -var l 2.9151 -var t 1700
#------------------------------------------------
variable i loop 0 10000 #число рестартов
variable time_step equal 1000*$i
variable time_step equal 1000*99
variable time_step_previous equal 1000*$i-1000
variable time_step_previous equal 1000*99-1000
# shell rm ./data/restarts_$t/${time_step_previous}
shell while [ ! -f ./data/restarts_$t/${time_step} ]; do sleep 0.5; done  #ждет, пока не создастся след рестарт
shell while [ ! -f ./data/restarts_1700/${time_step} ]; do sleep 0.5; done  
shell while [ ! -f ./data/restarts_1700/99000 ]; do sleep 0.5; done  
# variable time_step_previous equal 1000*$i-1000
#------------------------------------------------
read_restart ./data/restarts_$t/${time_step}
read_restart ./data/restarts_1700/${time_step}
read_restart ./data/restarts_1700/99000
  restoring atom style atomic from restart
  orthogonal box = (0 0 0) to (29.151 29.151 29.151)
  1 by 1 by 1 MPI processor grid
  pair style eam/fs stores no restart info
  2001 atoms
  read_restart CPU = 0.000249147 secs
pair_style      eam/fs
pair_coeff      * * ../Fe_mm.eam.fs Fe
Reading potential file ../Fe_mm.eam.fs with DATE: 2007-06-11
min_style cg
minimize 1e-9 1e-9 5000 5000
WARNING: Using 'neigh_modify every 1 delay 0 check yes' setting during minimization (../min.cpp:168)
Unused restart file peratom fix info:
  fix style: STORE, fix ID: msd_COMPUTE_STORE
Neighbor list info ...
  update every 1 steps, delay 0 steps, check yes
  max neighbors/atom: 2000, page size: 100000
  master list distance cutoff = 7.3
  ghost atom cutoff = 7.3
  binsize = 3.65, bins = 8 8 8
  1 neighbor lists, perpetual/occasional/extra = 1 0 0
  (1) pair eam/fs, perpetual
      attributes: half, newton on
      pair build: half/bin/atomonly/newton
      stencil: half/bin/3d/newton
      bin: standard
Per MPI rank memory allocation (min/avg/max) = 4.695 | 4.695 | 4.695 Mbytes
Step Temp E_pair E_mol TotEng Press 
   99000    1644.3373   -7742.5496            0    -7317.455   -1149.3851 
   99062    1644.3373   -8196.5977            0   -7771.5032   -82446.241 
Loop time of 0.45581 on 1 procs for 62 steps with 2001 atoms

98.9% CPU use with 1 MPI tasks x no OpenMP threads

Minimization stats:
  Stopping criterion = energy tolerance
  Energy initial, next-to-last, final = 
         -7742.5495801     -8196.59772888     -8196.59773461
  Force two-norm initial, final = 83.0548 0.00995984
  Force max component initial, final = 4.59108 0.00246521
  Final line search alpha, max atom move = 1 0.00246521
  Iterations, force evaluations = 62 109

MPI task timing breakdown:
Section |  min time  |  avg time  |  max time  |%varavg| %total
---------------------------------------------------------------
Pair    | 0.44464    | 0.44464    | 0.44464    |   0.0 | 97.55
Neigh   | 0.0038919  | 0.0038919  | 0.0038919  |   0.0 |  0.85
Comm    | 0.0024202  | 0.0024202  | 0.0024202  |   0.0 |  0.53
Output  | 0          | 0          | 0          |   0.0 |  0.00
Modify  | 0          | 0          | 0          |   0.0 |  0.00
Other   |            | 0.004857   |            |       |  1.07

Nlocal:    2001 ave 2001 max 2001 min
Histogram: 1 0 0 0 0 0 0 0 0 0
Nghost:    4901 ave 4901 max 4901 min
Histogram: 1 0 0 0 0 0 0 0 0 0
Neighs:    136073 ave 136073 max 136073 min
Histogram: 1 0 0 0 0 0 0 0 0 0

Total # of neighbors = 136073
Ave neighs/atom = 68.0025
Neighbor list builds = 1
Dangerous builds = 0
compute cna all cna/atom 3.45
compute 2 all reduce sum c_cna
thermo_style    custom step temp pe c_2
run 0
WARNING: No fixes defined, atoms won't move (../verlet.cpp:52)
Neighbor list info ...
  update every 1 steps, delay 10 steps, check yes
  max neighbors/atom: 2000, page size: 100000
  master list distance cutoff = 7.3
  ghost atom cutoff = 7.3
  binsize = 3.65, bins = 8 8 8
  2 neighbor lists, perpetual/occasional/extra = 1 1 0
  (1) pair eam/fs, perpetual
      attributes: half, newton on
      pair build: half/bin/atomonly/newton
      stencil: half/bin/3d/newton
      bin: standard
  (2) compute cna/atom, occasional
      attributes: full, newton on
      pair build: full/bin/atomonly
      stencil: full/bin/3d
      bin: standard
Per MPI rank memory allocation (min/avg/max) = 4.425 | 4.425 | 4.425 Mbytes
Step Temp PotEng c_2 
   99062    1644.3373   -8196.5977         6039 
Loop time of 1.19209e-06 on 1 procs for 0 steps with 2001 atoms

83.9% CPU use with 1 MPI tasks x no OpenMP threads

MPI task timing breakdown:
Section |  min time  |  avg time  |  max time  |%varavg| %total
---------------------------------------------------------------
Pair    | 0          | 0          | 0          |   0.0 |  0.00
Neigh   | 0          | 0          | 0          |   0.0 |  0.00
Comm    | 0          | 0          | 0          |   0.0 |  0.00
Output  | 0          | 0          | 0          |   0.0 |  0.00
Modify  | 0          | 0          | 0          |   0.0 |  0.00
Other   |            | 1.192e-06  |            |       |100.00

Nlocal:    2001 ave 2001 max 2001 min
Histogram: 1 0 0 0 0 0 0 0 0 0
Nghost:    5285 ave 5285 max 5285 min
Histogram: 1 0 0 0 0 0 0 0 0 0
Neighs:    136111 ave 136111 max 136111 min
Histogram: 1 0 0 0 0 0 0 0 0 0
FullNghs:  272222 ave 272222 max 272222 min
Histogram: 1 0 0 0 0 0 0 0 0 0

Total # of neighbors = 272222
Ave neighs/atom = 136.043
Neighbor list builds = 0
Dangerous builds = 0
#------------------------------------------------
variable cnat atom "c_cna != 3.0"
group sia_surround variable cnat
18 atoms in group sia_surround
dump		after_min_sia sia_surround custom 1 ./data/dumps_$t/surr_sia.dump x y z
dump		after_min_sia sia_surround custom 1 ./data/dumps_1700/surr_sia.dump x y z
dump_modify after_min_sia append yes

compute comV sia_surround com
compute med_x sia_surround reduce ave x
compute med_y sia_surround reduce ave y
compute med_z sia_surround reduce ave z
thermo_style custom step temp pe c_comV[1] c_comV[2] c_comV[3] c_med_x c_med_y c_med_z
run 0
WARNING: No fixes defined, atoms won't move (../verlet.cpp:52)
Per MPI rank memory allocation (min/avg/max) = 7.629 | 7.629 | 7.629 Mbytes
Step Temp PotEng c_comV[1] c_comV[2] c_comV[3] c_med_x c_med_y c_med_z 
   99062    1644.3373   -8196.5977    16.047573    16.350864    18.961021    16.047573    21.209364    18.961021 
Loop time of 9.53674e-07 on 1 procs for 0 steps with 2001 atoms

104.9% CPU use with 1 MPI tasks x no OpenMP threads

MPI task timing breakdown:
Section |  min time  |  avg time  |  max time  |%varavg| %total
---------------------------------------------------------------
Pair    | 0          | 0          | 0          |   0.0 |  0.00
Neigh   | 0          | 0          | 0          |   0.0 |  0.00
Comm    | 0          | 0          | 0          |   0.0 |  0.00
Output  | 0          | 0          | 0          |   0.0 |  0.00
Modify  | 0          | 0          | 0          |   0.0 |  0.00
Other   |            | 9.537e-07  |            |       |100.00

Nlocal:    2001 ave 2001 max 2001 min
Histogram: 1 0 0 0 0 0 0 0 0 0
Nghost:    5285 ave 5285 max 5285 min
Histogram: 1 0 0 0 0 0 0 0 0 0
Neighs:    136111 ave 136111 max 136111 min
Histogram: 1 0 0 0 0 0 0 0 0 0
FullNghs:  272222 ave 272222 max 272222 min
Histogram: 1 0 0 0 0 0 0 0 0 0

Total # of neighbors = 272222
Ave neighs/atom = 136.043
Neighbor list builds = 0
Dangerous builds = 0
variable comX equal c_comV[1]
variable comY equal c_comV[2]
variable comZ equal c_comV[3]
variable med_x equal c_med_x
variable med_y equal c_med_y
variable med_z equal c_med_z
variable time equal ${time_step}/1000
variable time equal 99000/1000
variable ts equal time
print "${time};${comX};${comY};${comZ}" append ./data/other_$t/coords
print "${time};${comX};${comY};${comZ}" append ./data/other_1700/coords
99;16.0475732532866;16.3508636282041;18.961021117556
print "${time};${med_x};${med_y};${med_z}" append ./data/other_$t/unw_coords
print "${time};${med_x};${med_y};${med_z}" append ./data/other_1700/unw_coords
99;16.0475732532866;21.2093636282041;18.961021117556
clear
shell rm ./data/restarts_$t/${time_step}
shell rm ./data/restarts_1700/${time_step}
shell rm ./data/restarts_1700/99000
next i
jump r2d.lmp
# -var l 2.8712 -var t 700
# -var l 2.8947 -var t 1300
# -var l 2.9151 -var t 1700
#------------------------------------------------
variable i loop 0 10000 #число рестартов
variable time_step equal 1000*$i
variable time_step equal 1000*100
variable time_step_previous equal 1000*$i-1000
variable time_step_previous equal 1000*100-1000
# shell rm ./data/restarts_$t/${time_step_previous}
shell while [ ! -f ./data/restarts_$t/${time_step} ]; do sleep 0.5; done  #ждет, пока не создастся след рестарт
shell while [ ! -f ./data/restarts_1700/${time_step} ]; do sleep 0.5; done  
shell while [ ! -f ./data/restarts_1700/100000 ]; do sleep 0.5; done  
# variable time_step_previous equal 1000*$i-1000
#------------------------------------------------
read_restart ./data/restarts_$t/${time_step}
read_restart ./data/restarts_1700/${time_step}
read_restart ./data/restarts_1700/100000
  restoring atom style atomic from restart
  orthogonal box = (0 0 0) to (29.151 29.151 29.151)
  1 by 1 by 1 MPI processor grid
  pair style eam/fs stores no restart info
  2001 atoms
  read_restart CPU = 0.000637054 secs
pair_style      eam/fs
pair_coeff      * * ../Fe_mm.eam.fs Fe
Reading potential file ../Fe_mm.eam.fs with DATE: 2007-06-11
min_style cg
minimize 1e-9 1e-9 5000 5000
WARNING: Using 'neigh_modify every 1 delay 0 check yes' setting during minimization (../min.cpp:168)
Unused restart file peratom fix info:
  fix style: STORE, fix ID: msd_COMPUTE_STORE
Neighbor list info ...
  update every 1 steps, delay 0 steps, check yes
  max neighbors/atom: 2000, page size: 100000
  master list distance cutoff = 7.3
  ghost atom cutoff = 7.3
  binsize = 3.65, bins = 8 8 8
  1 neighbor lists, perpetual/occasional/extra = 1 0 0
  (1) pair eam/fs, perpetual
      attributes: half, newton on
      pair build: half/bin/atomonly/newton
      stencil: half/bin/3d/newton
      bin: standard
Per MPI rank memory allocation (min/avg/max) = 4.691 | 4.691 | 4.691 Mbytes
Step Temp E_pair E_mol TotEng Press 
  100000    1600.4526   -7731.1988            0   -7317.4493   -1340.4671 
  100053    1600.4526   -8196.5977            0   -7782.8483   -82935.445 
Loop time of 0.359641 on 1 procs for 53 steps with 2001 atoms

99.8% CPU use with 1 MPI tasks x no OpenMP threads

Minimization stats:
  Stopping criterion = energy tolerance
  Energy initial, next-to-last, final = 
         -7731.1987775     -8196.59771516     -8196.59772249
  Force two-norm initial, final = 81.8568 0.0145426
  Force max component initial, final = 5.19882 0.00612948
  Final line search alpha, max atom move = 1 0.00612948
  Iterations, force evaluations = 53 91

MPI task timing breakdown:
Section |  min time  |  avg time  |  max time  |%varavg| %total
---------------------------------------------------------------
Pair    | 0.35421    | 0.35421    | 0.35421    |   0.0 | 98.49
Neigh   | 0          | 0          | 0          |   0.0 |  0.00
Comm    | 0.0016954  | 0.0016954  | 0.0016954  |   0.0 |  0.47
Output  | 0          | 0          | 0          |   0.0 |  0.00
Modify  | 0          | 0          | 0          |   0.0 |  0.00
Other   |            | 0.003731   |            |       |  1.04

Nlocal:    2001 ave 2001 max 2001 min
Histogram: 1 0 0 0 0 0 0 0 0 0
Nghost:    4778 ave 4778 max 4778 min
Histogram: 1 0 0 0 0 0 0 0 0 0
Neighs:    133966 ave 133966 max 133966 min
Histogram: 1 0 0 0 0 0 0 0 0 0

Total # of neighbors = 133966
Ave neighs/atom = 66.9495
Neighbor list builds = 0
Dangerous builds = 0
compute cna all cna/atom 3.45
compute 2 all reduce sum c_cna
thermo_style    custom step temp pe c_2
run 0
WARNING: No fixes defined, atoms won't move (../verlet.cpp:52)
Neighbor list info ...
  update every 1 steps, delay 10 steps, check yes
  max neighbors/atom: 2000, page size: 100000
  master list distance cutoff = 7.3
  ghost atom cutoff = 7.3
  binsize = 3.65, bins = 8 8 8
  2 neighbor lists, perpetual/occasional/extra = 1 1 0
  (1) pair eam/fs, perpetual
      attributes: half, newton on
      pair build: half/bin/atomonly/newton
      stencil: half/bin/3d/newton
      bin: standard
  (2) compute cna/atom, occasional
      attributes: full, newton on
      pair build: full/bin/atomonly
      stencil: full/bin/3d
      bin: standard
Per MPI rank memory allocation (min/avg/max) = 4.42 | 4.42 | 4.42 Mbytes
Step Temp PotEng c_2 
  100053    1600.4526   -8196.5977         6039 
Loop time of 9.53674e-07 on 1 procs for 0 steps with 2001 atoms

104.9% CPU use with 1 MPI tasks x no OpenMP threads

MPI task timing breakdown:
Section |  min time  |  avg time  |  max time  |%varavg| %total
---------------------------------------------------------------
Pair    | 0          | 0          | 0          |   0.0 |  0.00
Neigh   | 0          | 0          | 0          |   0.0 |  0.00
Comm    | 0          | 0          | 0          |   0.0 |  0.00
Output  | 0          | 0          | 0          |   0.0 |  0.00
Modify  | 0          | 0          | 0          |   0.0 |  0.00
Other   |            | 9.537e-07  |            |       |100.00

Nlocal:    2001 ave 2001 max 2001 min
Histogram: 1 0 0 0 0 0 0 0 0 0
Nghost:    5201 ave 5201 max 5201 min
Histogram: 1 0 0 0 0 0 0 0 0 0
Neighs:    136111 ave 136111 max 136111 min
Histogram: 1 0 0 0 0 0 0 0 0 0
FullNghs:  272222 ave 272222 max 272222 min
Histogram: 1 0 0 0 0 0 0 0 0 0

Total # of neighbors = 272222
Ave neighs/atom = 136.043
Neighbor list builds = 0
Dangerous builds = 0
#------------------------------------------------
variable cnat atom "c_cna != 3.0"
group sia_surround variable cnat
18 atoms in group sia_surround
dump		after_min_sia sia_surround custom 1 ./data/dumps_$t/surr_sia.dump x y z
dump		after_min_sia sia_surround custom 1 ./data/dumps_1700/surr_sia.dump x y z
dump_modify after_min_sia append yes

compute comV sia_surround com
compute med_x sia_surround reduce ave x
compute med_y sia_surround reduce ave y
compute med_z sia_surround reduce ave z
thermo_style custom step temp pe c_comV[1] c_comV[2] c_comV[3] c_med_x c_med_y c_med_z
run 0
WARNING: No fixes defined, atoms won't move (../verlet.cpp:52)
Per MPI rank memory allocation (min/avg/max) = 7.624 | 7.624 | 7.624 Mbytes
Step Temp PotEng c_comV[1] c_comV[2] c_comV[3] c_med_x c_med_y c_med_z 
  100053    1600.4526   -8196.5977    13.133921     24.77383    24.788081    13.133921     24.77383    24.788081 
Loop time of 9.53674e-07 on 1 procs for 0 steps with 2001 atoms

209.7% CPU use with 1 MPI tasks x no OpenMP threads

MPI task timing breakdown:
Section |  min time  |  avg time  |  max time  |%varavg| %total
---------------------------------------------------------------
Pair    | 0          | 0          | 0          |   0.0 |  0.00
Neigh   | 0          | 0          | 0          |   0.0 |  0.00
Comm    | 0          | 0          | 0          |   0.0 |  0.00
Output  | 0          | 0          | 0          |   0.0 |  0.00
Modify  | 0          | 0          | 0          |   0.0 |  0.00
Other   |            | 9.537e-07  |            |       |100.00

Nlocal:    2001 ave 2001 max 2001 min
Histogram: 1 0 0 0 0 0 0 0 0 0
Nghost:    5201 ave 5201 max 5201 min
Histogram: 1 0 0 0 0 0 0 0 0 0
Neighs:    136111 ave 136111 max 136111 min
Histogram: 1 0 0 0 0 0 0 0 0 0
FullNghs:  272222 ave 272222 max 272222 min
Histogram: 1 0 0 0 0 0 0 0 0 0

Total # of neighbors = 272222
Ave neighs/atom = 136.043
Neighbor list builds = 0
Dangerous builds = 0
