ITEM: TIMESTEP
100041
ITEM: NUMBER OF ATOMS
18
ITEM: BOX BOUNDS pp pp pp
0.0000000000000000e+00 2.8712000000000000e+01
0.0000000000000000e+00 2.8712000000000000e+01
0.0000000000000000e+00 2.8712000000000000e+01
ITEM: ATOMS x y z c_cna 
24.4011 24.4646 10.0869 5 
24.401 26.536 12.1578 5 
22.9786 28.6836 11.5084 5 
24.401 27.2803 9.9327 5 
22.5635 25.6988 11.3212 5 
26.2386 25.6989 11.3212 5 
25.8234 28.6837 11.5085 5 
24.4009 1.54711 12.9119 5 
22.5633 0.159011 14.4934 5 
24.4009 1.39313 15.7277 5 
26.2386 0.159037 14.4935 5 
24.4011 24.3107 12.9026 5 
21.5668 27.2849 12.9072 5 
24.4009 28.0337 13.6566 5 
22.9786 25.8861 14.306 5 
24.4009 27.2894 15.8818 5 
27.2351 27.2849 12.9073 5 
25.8234 25.8861 14.3061 5 
ITEM: TIMESTEP
100042
ITEM: NUMBER OF ATOMS
18
ITEM: BOX BOUNDS pp pp pp
0.0000000000000000e+00 2.8712000000000000e+01
0.0000000000000000e+00 2.8712000000000000e+01
0.0000000000000000e+00 2.8712000000000000e+01
ITEM: ATOMS x y z c_cna 
24.4011 24.4646 10.0869 5 
24.401 26.536 12.1578 5 
22.9786 28.6836 11.5084 5 
24.401 27.2803 9.9327 5 
22.5635 25.6988 11.3212 5 
26.2386 25.6989 11.3212 5 
25.8234 28.6837 11.5085 5 
24.4009 1.54711 12.9119 5 
22.5633 0.159011 14.4934 5 
24.4009 1.39313 15.7277 5 
26.2386 0.159037 14.4935 5 
24.4011 24.3107 12.9026 5 
21.5668 27.2849 12.9072 5 
24.4009 28.0337 13.6566 5 
22.9786 25.8861 14.306 5 
24.4009 27.2894 15.8818 5 
27.2351 27.2849 12.9073 5 
25.8234 25.8861 14.3061 5 
