ITEM: TIMESTEP
10044
ITEM: NUMBER OF ATOMS
2001
ITEM: BOX BOUNDS pp pp pp
0.0000000000000000e+00 2.8712000000000000e+01
0.0000000000000000e+00 2.8712000000000000e+01
0.0000000000000000e+00 2.8712000000000000e+01
ITEM: ATOMS x y z c_cna 
1.43587 1.43562 1.43465 3 
2.87041 2.87007 2.87015 3 
2.87112 6.28772e-05 2.87014 3 
0.000413869 2.87092 2.87018 3 
0.00114661 0.000947657 2.8702 3 
4.30577 1.43465 1.43451 3 
7.17603 1.43413 1.43466 3 
5.74043 2.86921 2.87014 3 
10.047 1.43421 1.43491 3 
8.61116 2.86891 2.87017 3 
11.4826 2.86914 2.87023 3 
12.9186 1.43463 1.43513 3 
15.7905 1.43522 1.43525 3 
14.3545 2.86966 2.87028 3 
14.3544 0.000255454 0.000254137 3 
18.6626 1.43581 1.43534 3 
17.2266 2.87026 2.8703 3 
20.0986 2.87081 2.8703 3 
20.0986 0.00104509 2.87035 3 
17.2265 0.000527865 2.87035 3 
20.0986 0.00144837 0.000701161 3 
17.2264 0.000892143 0.000538916 3 
21.5346 1.43629 1.4353 3 
24.4063 1.43651 1.43518 3 
22.9704 2.87121 2.87027 3 
22.9706 0.00141595 2.87032 3 
22.9708 0.00182327 0.000683923 3 
27.2775 1.43633 1.43496 3 
25.8418 2.87131 2.87022 3 
25.8425 0.00181306 0.000415841 3 
25.8423 0.00144098 2.87026 3 
1.4351 4.30551 1.43456 3 
1.43475 7.17579 1.43467 3 
2.86975 5.74015 2.87017 3 
4.30496 4.30454 1.43467 3 
7.17531 4.30384 1.43495 3 
4.30438 7.17501 1.43494 3 
7.17451 7.17415 1.43548 3 
5.73965 5.73925 2.87017 3 
10.0466 4.30374 1.4352 3 
10.0459 7.1739 1.43579 3 
8.61051 5.7388 2.8702 3 
11.4823 5.73893 2.87025 3 
11.4821 5.73849 0.000741649 3 
8.61027 5.7384 0.000469937 3 
12.9185 4.30411 1.4353 3 
15.7906 4.30468 1.4353 3 
12.9181 7.17423 1.43581 3 
15.7905 7.17477 1.43573 3 
14.3544 5.7394 2.87025 3 
14.3544 5.739 0.000725547 3 
18.6627 4.30527 1.43526 3 
18.6627 7.17535 1.43557 3 
17.2266 5.73999 2.87026 3 
20.0987 5.74054 2.87026 3 
20.0988 5.74024 0.000278673 3 
17.2267 5.73964 0.000550335 3 
21.5346 4.30578 1.43513 3 
24.4061 4.30611 1.4349 3 
21.5346 7.17584 1.43536 3 
22.9704 5.74096 2.87022 3 
24.406 7.17619 1.43505 3 
28.7119 5.74091 2.87017 3 
27.2769 4.30607 1.43468 3 
27.2767 7.17624 1.43475 3 
25.8415 5.74115 2.8702 3 
1.43489 10.0468 1.43485 3 
2.86955 8.61097 2.87016 3 
2.86974 11.4825 2.87015 3 
0.000102729 11.4826 2.87017 3 
4.30431 10.0464 1.43511 3 
7.17425 10.0458 1.43572 3 
5.73925 8.61031 2.87017 3 
5.73935 11.4823 2.87013 3 
5.73894 11.482 0.000604458 3 
5.7389 8.60997 0.000401528 3 
10.0455 10.0454 1.43609 3 
8.60998 8.60978 2.87021 3 
11.4819 8.60982 2.87025 3 
8.60998 11.4819 2.87018 3 
11.4817 11.4818 2.87025 3 
11.4808 11.4808 0.00212622 3 
8.60905 11.4813 0.00181923 3 
8.60921 8.60893 0.00159852 3 
11.4813 8.60882 0.00191536 3 
12.9178 10.0456 1.43605 3 
15.7902 10.0461 1.43587 3 
14.3542 8.61023 2.87027 3 
14.354 11.482 2.87028 3 
14.3536 11.4812 0.00167041 3 
14.3541 8.60933 0.00170364 3 
18.6625 10.0466 1.43576 3 
17.2265 8.61075 2.87027 3 
20.0986 8.6112 2.87026 3 
17.2262 11.4824 2.87029 3 
20.0982 11.4827 2.8703 3 
20.0989 8.61061 0.0010086 3 
17.2263 11.4817 0.00134128 3 
17.2267 8.61001 0.00138749 3 
20.0986 11.4822 0.00120238 3 
21.5344 10.0469 1.43559 3 
24.4059 10.0471 1.43529 3 
22.9703 8.61152 2.87024 3 
22.9701 11.4828 2.87026 3 
22.9703 11.4825 0.00083241 3 
22.9705 8.61115 0.000450944 3 
28.7118 8.61142 2.87018 3 
27.2769 10.047 1.43501 3 
25.8414 8.61165 2.87018 3 
25.8415 11.4827 2.8702 3 
25.8418 11.4823 0.000381806 3 
1.43519 12.9184 1.43498 3 
1.43555 15.7903 1.43507 3 
2.87007 14.3544 2.87013 3 
0.000438404 14.3542 2.87018 3 
0.0006897 14.3541 0.000112827 3 
4.30457 12.9184 1.43513 3 
7.17449 12.9182 1.43567 3 
4.30495 15.7906 1.43508 3 
7.17496 15.7906 1.43552 3 
5.7397 14.3545 2.87013 3 
5.73931 14.3544 0.000501806 3 
10.0457 12.9179 1.43597 3 
10.0462 15.7904 1.43575 3 
8.61035 14.3544 2.87017 3 
11.482 14.3541 2.87022 3 
8.60952 14.3542 0.00152312 3 
11.4812 14.3538 0.00158093 3 
12.9177 12.9178 1.43581 3 
15.79 12.9181 1.43561 3 
12.9181 15.7901 1.43555 3 
15.7902 15.7902 1.43532 3 
14.3541 14.3541 2.87027 3 
14.3536 14.3536 0.00092015 3 
18.6622 12.9185 1.43561 3 
18.6623 15.7904 1.4354 3 
17.2261 14.3544 2.87031 3 
20.0981 14.3546 2.87032 3 
20.0983 14.3544 0.000943701 3 
17.2261 14.354 0.000670019 3 
21.5342 12.9186 1.43564 3 
24.406 12.9183 1.43556 3 
21.5343 15.7904 1.43561 3 
24.4063 15.7901 1.43571 3 
22.9701 14.3544 2.8703 3 
22.9706 14.3541 0.00115565 3 
27.2772 12.9182 1.43528 3 
27.2775 15.79 1.43546 3 
25.8418 14.3542 2.87025 3 
25.8423 14.3538 0.00087358 3 
1.43592 18.6623 1.43515 3 
2.87047 17.2264 2.87014 3 
2.87085 20.0984 2.87018 3 
0.00117309 20.0982 2.87025 3 
0.000782774 17.2261 2.8702 3 
0.00107877 17.2261 0.000333273 3 
0.00150238 20.0983 0.000536661 3 
4.30536 18.6626 1.43503 3 
7.17544 18.6627 1.43538 3 
5.74012 17.2267 2.87013 3 
5.74057 20.0986 2.87016 3 
5.7403 20.0987 3.80127e-05 3 
5.73979 17.2268 0.000282628 3 
10.0467 18.6626 1.43561 3 
8.61084 17.2266 2.87016 3 
11.4825 17.2263 2.87023 3 
8.61128 20.0985 2.87019 3 
11.4829 20.0982 2.87023 3 
8.61016 17.2268 0.00115129 3 
11.4825 20.0986 0.00104443 3 
11.4819 17.2264 0.00120933 3 
8.61078 20.0989 0.000803529 3 
12.9187 18.6622 1.43553 3 
15.7907 18.6621 1.43536 3 
14.3545 17.2261 2.87029 3 
14.3549 20.098 2.87031 3 
14.3542 17.2261 0.000604298 3 
14.3547 20.0982 0.000858411 3 
18.6627 18.6624 1.43534 3 
17.2265 17.2263 2.87032 3 
20.0984 17.2264 2.87035 3 
17.2268 20.0981 2.87034 3 
20.0988 20.0984 2.87036 3 
20.0992 20.0989 0.000918601 3 
20.0987 17.2265 0.000663528 3 
17.2269 20.0984 0.000632853 3 
17.2265 17.2262 0.00030216 3 
21.5347 18.6624 1.43563 3 
24.4067 18.6623 1.43586 3 
22.9704 17.2263 2.87035 3 
22.9708 20.0985 2.87035 3 
22.9716 20.0988 0.0016093 3 
22.9711 17.2262 0.00127857 3 
27.2779 18.6621 1.43564 3 
25.8421 17.2261 2.8703 3 
25.8425 20.0983 2.87033 3 
25.8433 20.0985 0.00157901 3 
25.8427 17.2259 0.00123989 3 
1.4363 21.5343 1.43517 3 
1.43655 24.406 1.43512 3 
2.87121 22.9701 2.8702 3 
0.00151549 22.9703 2.87027 3 
0.00184343 22.9705 0.00060541 3 
4.30578 21.5343 1.43496 3 
7.17591 21.5344 1.43523 3 
5.74096 22.9701 2.87017 3 
4.30612 24.4057 1.43482 3 
7.17627 24.4056 1.43498 3 
10.0471 21.5343 1.43549 3 
8.61162 22.9699 2.8702 3 
11.4831 22.9698 2.87026 3 
10.0473 24.4055 1.43527 3 
11.4829 22.9701 0.000756515 3 
8.61133 22.9703 0.000315498 3 
12.919 21.534 1.43559 3 
15.7909 21.5341 1.43559 3 
15.7907 24.406 1.43576 3 
14.3549 22.9698 2.87033 3 
12.9188 24.4057 1.43558 3 
14.3546 22.9704 0.00112045 3 
18.6629 21.5344 1.43564 3 
18.6628 24.4064 1.43591 3 
17.2268 22.9701 2.87037 3 
20.0989 22.9705 2.87038 3 
20.0992 22.9713 0.00162706 3 
17.2267 22.9708 0.00128095 3 
21.5351 21.5347 1.43588 3 
24.4071 21.5347 1.43604 3 
21.5351 24.4069 1.43607 3 
22.9711 22.9707 2.87037 3 
24.4073 24.407 1.43613 3 
22.972 22.9717 0.00211277 3 
27.2783 21.5344 1.43576 3 
27.2785 24.4066 1.43577 3 
25.8428 22.9706 2.87034 3 
25.8437 22.9712 0.00182394 3 
1.43645 27.2772 1.43493 3 
2.87139 25.8414 2.87017 3 
0.00155832 25.8421 2.87024 3 
0.00189304 25.8423 0.000367832 3 
5.74106 28.7113 2.87014 3 
4.30619 27.2765 1.43462 3 
7.17641 27.2761 1.4347 3 
5.74121 25.841 2.87015 3 
8.61158 28.7112 2.87018 3 
11.4828 28.7114 2.87024 3 
10.0472 27.2762 1.43505 3 
8.61178 25.8408 2.8702 3 
11.483 25.841 2.87026 3 
11.4827 25.8414 0.000393988 3 
14.3545 28.712 2.87029 3 
12.9186 27.2766 1.43537 3 
15.7905 27.2772 1.43561 3 
14.3546 25.8413 2.87033 3 
14.3544 25.8419 0.00095136 3 
18.6626 27.2777 1.43577 3 
17.2266 25.8418 2.87038 3 
20.0987 25.8422 2.87039 3 
17.2264 25.8425 0.0013399 3 
20.0989 25.8431 0.00166417 3 
21.5348 27.2782 1.43585 3 
22.971 25.8426 2.87035 3 
24.4069 27.2784 1.4358 3 
22.9715 25.8435 0.00185796 3 
27.2783 27.2781 1.43548 3 
25.8428 25.8426 2.87031 3 
25.8435 25.8434 0.00154249 3 
1.43588 1.43564 4.30567 3 
1.43586 1.43565 7.17706 3 
2.87042 2.87011 5.7415 3 
0.00139535 0.00121285 5.74071 3 
0.000419301 2.87102 5.74134 3 
2.87117 0.000109594 5.74134 3 
4.30574 1.43466 4.30578 3 
7.17599 1.43415 4.30567 3 
4.30582 1.43465 7.17727 3 
7.17609 1.43417 7.17697 3 
5.74042 2.8692 5.74127 3 
10.047 1.43421 4.30549 3 
10.047 1.43434 7.17649 3 
8.61112 2.86893 5.74092 3 
11.4826 2.86917 5.74068 3 
12.9185 1.43465 4.3054 3 
15.7905 1.43525 4.30535 3 
12.9185 1.43481 7.17614 3 
15.7904 1.43542 7.17592 3 
14.3545 2.86969 5.74059 3 
14.3543 0.000292782 5.74032 3 
18.6626 1.43583 4.30533 3 
18.6625 1.43603 7.1758 3 
17.2265 2.87029 5.74059 3 
20.0986 2.87087 5.74065 3 
17.2264 0.000906775 5.74011 3 
20.0986 0.00150017 5.73996 3 
21.5346 1.43631 4.30531 3 
24.4064 1.43656 4.30535 3 
21.5347 1.43655 7.1758 3 
24.4065 1.43683 7.17596 3 
22.9705 2.87129 5.74078 3 
22.9709 0.00190704 5.73992 3 
27.2776 1.43637 4.30546 3 
27.2777 1.43659 7.17644 3 
25.8418 2.87142 5.74102 3 
25.8427 0.00189126 5.74013 3 
1.4351 4.30552 4.30579 3 
1.43475 7.1758 4.30566 3 
1.43504 4.30565 7.17723 3 
1.43474 7.17597 7.17694 3 
2.86971 5.74018 5.74126 3 
4.30498 4.30463 7.17698 3 
7.17528 4.30384 4.30539 3 
4.30493 4.30455 4.30566 3 
4.30435 7.17502 4.30538 3 
7.17446 7.17419 4.3049 3 
4.30423 7.17496 7.17627 3 
7.17517 4.30376 7.17629 3 
5.73943 5.73907 5.74059 3 
7.17364 7.17337 7.17467 3 
10.0465 4.30376 4.30524 3 
10.0459 7.17394 4.30467 3 
10.0464 4.30361 7.17578 3 
8.61018 5.73844 5.73994 3 
10.0449 7.17266 7.17369 3 
11.482 5.73853 5.73972 3 
12.9184 4.30414 4.3052 3 
15.7906 4.30469 4.30523 3 
12.9181 7.17423 4.30467 3 
15.7905 7.17478 4.3048 3 
12.9183 4.304 7.17562 3 
15.7905 4.30458 7.1757 3 
12.9176 7.17297 7.17364 3 
14.3544 5.73902 5.73978 3 
15.7905 7.17366 7.174 3 
18.6627 4.30529 4.3053 3 
18.6627 7.17534 4.30493 3 
18.6627 4.30519 7.17588 3 
17.2267 5.73964 5.73996 3 
18.663 7.17442 7.17447 3 
20.0988 5.74026 5.74022 3 
21.5346 4.30581 4.30541 3 
24.4061 4.30614 4.30553 3 
21.5346 7.17584 4.30512 3 
24.406 7.17621 4.30537 3 
21.5346 4.30575 7.17615 3 
21.5351 7.17521 7.17512 3 
22.9705 5.74081 5.7406 3 
24.4063 7.17594 7.176 3 
24.4061 4.30617 7.17656 3 
28.7119 5.74098 5.74137 3 
27.2769 4.30611 4.30569 3 
27.2767 7.17627 4.3056 3 
27.2768 4.30623 7.17699 3 
25.8415 5.74113 5.74104 3 
27.2767 7.17635 7.17676 3 
1.43489 10.0468 4.30546 3 
1.43495 10.0469 7.17649 3 
2.86952 8.61098 5.74091 3 
2.86974 11.4825 5.74066 3 
0.000317583 11.4825 5.74059 3 
4.30431 10.0464 4.30519 3 
7.17422 10.0458 4.30465 3 
4.30411 10.0463 7.17579 3 
5.73886 8.61003 5.73993 3 
7.17294 10.0449 7.17371 3 
5.73892 11.4821 5.73972 3 
10.0455 10.0454 4.30437 3 
8.60914 8.60898 5.73881 3 
10.0433 10.0432 7.17193 3 
11.4812 8.60885 5.73858 3 
8.60901 11.4813 5.73858 3 
11.4808 11.4808 5.73837 3 
12.9177 10.0456 4.30449 3 
15.7902 10.0461 4.30466 3 
12.9166 10.0434 7.17209 3 
14.354 8.60933 5.73882 3 
15.7902 10.0442 7.17279 3 
14.3536 11.4811 5.73888 3 
18.6625 10.0465 4.3048 3 
17.2266 8.60998 5.73915 3 
18.6631 10.0451 7.17339 3 
20.0989 8.61059 5.73952 3 
17.2263 11.4817 5.73923 3 
20.0986 11.4822 5.73939 3 
21.5344 10.0469 4.30494 3 
24.4059 10.0471 4.30516 3 
21.5353 10.0459 7.1741 3 
22.9706 8.61115 5.74003 3 
22.9704 11.4825 5.73969 3 
24.4063 10.0467 7.17525 3 
28.7119 8.61141 5.74101 3 
27.2769 10.047 4.30534 3 
25.8415 8.61155 5.74069 3 
27.2772 10.0467 7.176 3 
25.8419 11.4823 5.74007 3 
1.43521 12.9184 4.30532 3 
1.43559 15.7902 4.30525 3 
1.43536 12.9184 7.17616 3 
1.43578 15.7902 7.176 3 
2.87012 14.3544 5.74059 3 
0.000769678 14.354 5.74029 3 
4.30497 15.7905 4.30517 3 
4.30458 12.9184 4.30513 3 
7.17448 12.9182 4.30464 3 
7.17493 15.7906 4.30477 3 
4.30442 12.9184 7.17571 3 
7.17323 12.9177 7.17371 3 
4.30485 15.7905 7.17583 3 
5.7393 14.3545 5.73982 3 
7.17385 15.7906 7.17413 3 
10.0456 12.9179 4.30447 3 
10.0461 15.7904 4.30466 3 
10.0434 12.9167 7.17213 3 
8.60947 14.3542 5.73887 3 
10.0443 15.7903 7.17287 3 
11.4811 14.3538 5.73889 3 
12.9177 12.9178 4.30472 3 
15.79 12.9181 4.30497 3 
12.9181 15.7901 4.30495 3 
15.7902 15.7901 4.30528 3 
12.9159 12.916 7.17248 3 
15.7896 12.9167 7.17352 3 
12.9167 15.7897 7.17357 3 
14.3536 14.3536 5.73963 3 
15.7896 15.7896 7.17481 3 
18.6622 12.9184 4.30501 3 
18.6623 15.7904 4.30525 3 
18.6626 12.9174 7.17374 3 
17.226 14.354 5.73993 3 
18.6624 15.7902 7.17462 3 
20.0983 14.3543 5.73968 3 
21.5342 12.9186 4.30497 3 
21.5344 15.7904 4.30505 3 
24.4064 15.7901 4.30488 3 
24.4061 12.9183 4.30497 3 
21.5348 12.9179 7.17393 3 
24.4071 12.9174 7.17417 3 
21.5354 15.7899 7.17382 3 
22.9707 14.354 5.73945 3 
24.4078 15.7893 7.17355 3 
27.2772 12.9182 4.30513 3 
27.2776 15.79 4.30499 3 
27.2779 12.9178 7.17521 3 
25.8424 14.3538 5.73961 3 
27.2785 15.7896 7.17465 3 
1.43599 18.6623 4.30527 3 
1.43619 18.6622 7.1759 3 
2.87052 17.2264 5.74062 3 
2.87092 20.0983 5.74069 3 
0.00165276 20.0982 5.73995 3 
0.00119504 17.226 5.74009 3 
4.30539 18.6625 4.30527 3 
7.17541 18.6627 4.30493 3 
4.30529 18.6625 7.17604 3 
5.73979 17.2267 5.74006 3 
7.17452 18.6631 7.17467 3 
5.74027 20.0987 5.74033 3 
10.0466 18.6626 4.30481 3 
8.61007 17.2268 5.73923 3 
10.0452 18.6632 7.17352 3 
11.4818 17.2264 5.73927 3 
8.61065 20.0989 5.73961 3 
11.4823 20.0986 5.73943 3 
12.9186 18.6622 4.30501 3 
15.7907 18.6621 4.30525 3 
12.9176 18.6626 7.1738 3 
14.3541 17.2261 5.73994 3 
15.7905 18.6622 7.17466 3 
14.3546 20.0982 5.73972 3 
18.6627 18.6623 4.30535 3 
17.2264 17.2262 5.74032 3 
18.6632 18.6629 7.17489 3 
20.0988 17.2264 5.73999 3 
17.2269 20.0984 5.74001 3 
20.0993 20.0988 5.73977 3 
21.5348 18.6624 4.30507 3 
24.4068 18.6623 4.3048 3 
21.5362 18.6628 7.17368 3 
22.9711 17.2261 5.73936 3 
24.4086 18.6622 7.17301 3 
22.9717 20.0988 5.73906 3 
27.278 18.6621 4.3049 3 
25.8429 17.2259 5.73931 3 
27.2791 18.662 7.17425 3 
25.8434 20.0984 5.73902 3 
1.43639 21.5343 4.30527 3 
1.43662 24.4061 4.30531 3 
1.4366 21.5343 7.17586 3 
2.87127 22.9701 5.74081 3 
1.43685 24.4062 7.176 3 
0.00200784 22.9705 5.73991 3 
7.17622 24.4056 4.30538 3 
4.3058 21.5343 4.30538 3 
7.17586 21.5344 4.30514 3 
4.30614 24.4057 4.30554 3 
4.30572 21.5343 7.17631 3 
7.1752 21.5349 7.17527 3 
4.30609 24.4057 7.17665 3 
5.74075 22.9702 5.74068 3 
7.17591 24.4059 7.17609 3 
10.047 21.5343 4.30495 3 
10.0472 24.4055 4.3052 3 
10.046 21.5352 7.17422 3 
8.6112 22.9703 5.74011 3 
10.0468 24.4059 7.17533 3 
11.4827 22.9701 5.73974 3 
12.9189 21.534 4.30497 3 
15.7908 21.5341 4.30507 3 
12.9187 24.4057 4.30501 3 
15.7906 24.406 4.30492 3 
12.9182 21.5346 7.174 3 
15.7903 21.5351 7.17387 3 
14.3545 22.9703 5.73949 3 
15.7899 24.4074 7.17358 3 
12.9178 24.4067 7.17423 3 
18.6629 21.5344 4.30509 3 
18.6628 24.4064 4.30482 3 
18.6633 21.5358 7.17371 3 
17.2267 22.9708 5.73939 3 
18.6628 24.4083 7.17301 3 
20.0993 22.9713 5.73906 3 
21.5352 21.5347 4.30487 3 
24.4072 21.5347 4.30465 3 
21.5351 24.4069 4.30467 3 
24.4074 24.407 4.30455 3 
21.5369 21.5364 7.1727 3 
21.5363 24.4091 7.17233 3 
22.9721 22.9717 5.73861 3 
24.4095 24.4092 7.1722 3 
24.4094 21.5358 7.17235 3 
27.2784 21.5344 4.30484 3 
27.2786 24.4066 4.30483 3 
27.2797 21.5349 7.17393 3 
25.8438 22.9712 5.73881 3 
27.2799 24.4076 7.17395 3 
1.43649 27.2773 4.30547 3 
1.43665 27.2774 7.17645 3 
2.87144 25.8415 5.74105 3 
0.00199496 25.8424 5.74013 3 
4.30618 27.2765 4.30569 3 
7.17636 27.2761 4.30563 3 
5.74109 28.7114 5.74141 3 
4.30623 27.2765 7.17706 3 
5.74111 25.8411 5.74108 3 
7.17638 27.2761 7.17683 3 
11.4826 28.7117 5.74062 3 
10.0471 27.2763 4.30539 3 
8.61151 28.7113 5.74106 3 
8.61162 25.841 5.74074 3 
10.0469 27.2766 7.17602 3 
11.4826 25.8414 5.74011 3 
12.9186 27.2767 4.3052 3 
15.7904 27.2772 4.30507 3 
12.9181 27.2774 7.17521 3 
14.3542 25.8419 5.73965 3 
15.79 27.2781 7.17464 3 
18.6626 27.2777 4.30497 3 
17.2264 25.8425 5.73934 3 
18.6625 27.2789 7.17421 3 
20.0989 25.8431 5.73904 3 
21.5348 27.2782 4.30488 3 
24.4069 27.2784 4.30484 3 
21.5353 27.2795 7.17389 3 
22.9716 25.8436 5.73883 3 
24.4079 27.2798 7.17394 3 
27.2783 27.2781 4.30501 3 
25.8437 25.8434 5.73904 3 
27.2792 27.279 7.1749 3 
2.87043 2.87019 8.61302 3 
0.001325 0.00118731 8.61219 3 
1.43572 1.43558 10.0486 3 
2.87046 2.87024 11.4844 3 
0.000245734 2.87108 8.61285 3 
0.000971319 0.000914183 11.4839 3 
5.74064 2.86932 8.6128 3 
4.30596 1.4346 10.0488 3 
7.17647 1.43414 10.0485 3 
5.74095 2.86943 11.4843 3 
8.6113 2.86898 8.61225 3 
11.4827 2.86925 8.61184 3 
10.0474 1.4343 10.0481 3 
8.61183 2.86915 11.4839 3 
11.4831 2.86938 11.4835 3 
14.3545 2.86976 8.61168 3 
12.9188 1.43476 10.0477 3 
15.7905 1.43528 10.0473 3 
14.3548 2.86987 11.4833 3 
14.3542 0.000506271 8.61119 3 
17.2265 2.87034 8.61166 3 
20.0985 2.87089 8.61174 3 
17.2263 0.00117885 8.61077 3 
20.0988 0.0018467 8.61047 3 
20.0989 0.00113192 11.4821 3 
17.2266 0.000400844 11.4825 3 
18.6625 1.43582 10.0471 3 
17.2265 2.87038 11.4832 3 
20.0982 2.87087 11.4833 3 
22.9703 2.87135 8.61196 3 
21.5346 1.43641 10.0471 3 
24.4064 1.43677 10.0474 3 
22.9698 2.8713 11.4836 3 
22.9713 0.00236974 8.61041 3 
22.9713 0.00190991 11.4822 3 
25.8417 2.87149 8.61236 3 
28.712 2.87109 11.4843 3 
27.2774 1.43644 10.0481 3 
25.8411 2.87143 11.484 3 
25.8431 0.00233023 8.61096 3 
25.8425 0.00179085 11.4832 3 
2.86976 5.74044 8.61276 3 
1.43498 4.30585 10.0487 3 
1.43469 7.17637 10.0485 3 
2.86986 5.74075 11.4843 3 
5.73953 5.7392 8.61199 3 
4.30449 7.17533 10.048 3 
4.30518 4.30485 10.0485 3 
7.17553 4.30403 10.048 3 
7.17386 7.17357 10.0467 3 
5.73991 5.73959 11.4838 3 
8.60976 5.73812 8.61073 3 
11.4816 5.73814 8.6102 3 
10.0465 4.3038 10.0473 3 
10.0439 7.17199 10.0446 3 
8.61039 5.73873 11.4831 3 
11.4816 5.73867 11.4821 3 
14.3542 5.73874 8.6103 3 
15.7905 4.30486 10.0471 3 
12.9184 4.30424 10.047 3 
12.9168 7.17245 10.0442 3 
15.7902 7.17346 10.0448 3 
14.354 5.7395 11.482 3 
17.2267 5.73944 8.61065 3 
20.0988 5.74013 8.61112 3 
18.6625 4.30544 10.0473 3 
18.6631 7.17437 10.0455 3 
17.2264 5.7403 11.4824 3 
20.0983 5.74082 11.483 3 
22.9704 5.74078 8.61175 3 
21.5343 4.30594 10.0476 3 
21.535 7.17525 10.0465 3 
22.9697 5.7413 11.4836 3 
24.4059 7.17625 10.0476 3 
24.4056 4.30633 10.0481 3 
28.7117 5.74121 8.6129 3 
28.7115 5.74154 11.4844 3 
25.8413 5.74129 8.61248 3 
27.2765 4.30639 10.0486 3 
27.2763 7.17677 10.0484 3 
25.8408 5.74167 11.4841 3 
2.86954 8.61117 8.61226 3 
2.86979 11.4826 8.61193 3 
0.000429942 11.4825 8.6118 3 
1.4349 10.0473 10.0481 3 
2.86971 8.61167 11.484 3 
2.8699 11.483 11.4837 3 
5.73851 8.6096 8.61075 3 
5.7385 11.4816 8.61028 3 
4.30427 10.0464 10.0473 3 
7.1723 10.0437 10.0446 3 
5.73913 8.61019 11.4831 3 
5.73907 11.4815 11.4822 3 
8.60695 8.60676 8.60759 3 
11.4793 8.60604 8.60644 3 
8.60622 11.4793 8.6065 3 
11.4768 11.4767 8.60402 3 
10.0382 10.0381 10.0383 3 
8.60779 8.60753 11.4813 3 
11.4771 8.60511 11.4776 3 
8.60538 11.477 11.4777 3 
11.4646 11.4644 11.4637 3 
14.3534 8.60687 8.60694 3 
14.3522 11.4776 8.60528 3 
12.9134 10.038 10.0376 3 
15.7902 10.0399 10.0393 3 
14.3521 8.60663 11.4778 3 
14.3481 11.4672 11.4656 3 
17.2271 8.60796 8.60779 3 
20.0998 8.60907 8.60879 3 
17.2269 11.479 8.60657 3 
20.1001 11.4802 8.60747 3 
18.665 10.0417 10.041 3 
17.2268 8.60821 11.4791 3 
20.0998 8.60941 11.4806 3 
17.23 11.4714 11.4698 3 
20.1047 11.4756 11.474 3 
22.9713 8.61038 8.61022 3 
22.971 11.4818 8.60931 3 
21.5371 10.044 10.0433 3 
22.9707 8.61104 11.4825 3 
22.9705 11.4822 11.481 3 
24.4062 10.0468 10.0465 3 
28.7119 8.61165 8.61245 3 
28.712 11.4831 11.4837 3 
28.7115 8.61219 11.4842 3 
25.8415 8.61159 8.61184 3 
25.8427 11.4816 8.61029 3 
27.2769 10.0471 10.0477 3 
25.8407 8.61231 11.4838 3 
25.842 11.4821 11.4825 3 
2.87019 14.3544 8.61182 3 
0.000969795 14.3539 8.61126 3 
1.43527 12.9186 10.0478 3 
1.43561 15.7902 10.0475 3 
2.87027 14.3546 11.4835 3 
0.000309081 14.3544 11.4832 3 
5.73904 14.3542 8.61046 3 
4.30465 12.9183 10.0472 3 
7.17274 12.9168 10.0443 3 
4.30515 15.7904 10.0473 3 
7.17371 15.7903 10.0449 3 
5.73986 14.354 11.4822 3 
8.60705 14.3535 8.60706 3 
11.4776 14.3522 8.60534 3 
10.0381 12.9134 10.0376 3 
10.0401 15.7903 10.0394 3 
8.6069 14.352 11.4779 3 
11.4674 14.3481 11.4657 3 
14.3513 14.3513 8.60709 3 
12.9094 12.9094 10.0349 3 
15.7887 12.9119 10.0383 3 
12.912 15.7887 10.0384 3 
15.7875 15.7874 10.0417 3 
14.3414 14.3413 11.4664 3 
17.2261 14.3525 8.60828 3 
20.0989 14.3537 8.60802 3 
18.665 12.9141 10.0399 3 
18.6623 15.7902 10.0424 3 
17.2286 14.346 11.4719 3 
20.0983 14.3542 11.476 3 
22.9725 14.3524 8.60756 3 
21.5354 12.9172 10.0428 3 
21.5386 15.7874 10.0399 3 
22.9771 14.3477 11.4741 3 
24.4089 12.9156 10.0434 3 
24.4111 15.7874 10.0412 3 
25.8439 14.3527 8.60896 3 
27.2779 12.9177 10.0466 3 
27.2786 15.7895 10.0458 3 
25.8436 14.3527 11.4808 3 
2.87054 17.2263 8.61187 3 
2.87092 20.0983 8.61195 3 
0.0019779 20.0984 8.6106 3 
0.00144616 17.2259 8.61089 3 
1.43595 18.6622 10.0474 3 
2.87059 17.2263 11.4835 3 
2.87086 20.098 11.4836 3 
0.000635823 17.2262 11.4827 3 
0.00121398 20.0985 11.4823 3 
5.73962 17.2267 8.61087 3 
5.74013 20.0987 8.61136 3 
4.30552 18.6624 10.0476 3 
7.17451 18.6631 10.0458 3 
5.74051 17.2263 11.4827 3 
5.74087 20.0982 11.4833 3 
8.60812 17.2272 8.60798 3 
11.4791 17.227 8.60668 3 
8.60918 20.0999 8.60901 3 
11.4805 20.1001 8.6076 3 
10.0419 18.6651 10.0412 3 
8.60843 17.2269 11.4793 3 
11.4716 17.23 11.47 3 
8.60959 20.0998 11.4809 3 
11.4759 20.1047 11.4742 3 
14.3526 17.226 8.60834 3 
14.354 20.0987 8.60812 3 
12.9143 18.6649 10.04 3 
15.7905 18.6621 10.0425 3 
14.3462 17.2285 11.472 3 
14.3546 20.0981 11.4761 3 
17.2264 17.2262 8.6096 3 
20.1002 17.2263 8.60835 3 
17.2268 20.0999 8.6084 3 
20.1016 20.1011 8.60724 3 
18.6653 18.6649 10.0418 3 
17.2264 17.2261 11.4786 3 
20.1066 17.2237 11.472 3 
17.2242 20.1063 11.472 3 
20.1115 20.111 11.4665 3 
22.9738 17.2254 8.60675 3 
22.9753 20.1002 8.60551 3 
21.5408 18.6636 10.0385 3 
22.9814 17.2223 11.47 3 
22.9855 20.1042 11.4658 3 
24.4128 18.6622 10.0395 3 
25.8449 17.2253 8.60803 3 
25.8459 20.099 8.60721 3 
27.2793 18.6622 10.045 3 
25.8446 17.2255 11.4793 3 
25.8461 20.1003 11.478 3 
2.87126 22.97 8.61212 3 
1.43637 21.5342 10.0473 3 
1.4367 24.4061 10.0476 3 
2.87117 22.9696 11.4838 3 
0.00245953 22.9709 8.61049 3 
0.00191074 22.9709 11.4824 3 
5.74069 22.9702 8.61194 3 
4.30586 21.534 10.0479 3 
7.17527 21.5349 10.0467 3 
4.30619 24.4053 10.0483 3 
7.17622 24.4056 10.0478 3 
5.74121 22.9695 11.4839 3 
8.61044 22.9711 8.61039 3 
11.4821 22.9708 8.6094 3 
10.047 24.4059 10.0466 3 
10.0442 21.537 10.0435 3 
8.61117 22.9705 11.4827 3 
11.4826 22.9703 11.4811 3 
14.3529 22.9722 8.60762 3 
12.9176 21.5352 10.0429 3 
15.7879 21.5383 10.04 3 
12.916 24.4086 10.0435 3 
15.788 24.4107 10.0412 3 
14.3483 22.9769 11.4742 3 
17.226 22.9734 8.60677 3 
20.1007 22.9748 8.60548 3 
20.1047 22.9851 11.4657 3 
17.2229 22.981 11.47 3 
18.6642 21.5404 10.0385 3 
18.6627 24.4125 10.0394 3 
22.9761 22.9756 8.60427 3 
22.9883 22.9879 11.4639 3 
21.5434 21.5429 10.0351 3 
24.4147 24.4143 10.0385 3 
21.5395 24.4144 10.0378 3 
24.4148 21.539 10.0378 3 
25.8467 22.9732 8.60675 3 
27.2806 24.4087 10.0449 3 
25.8475 22.9754 11.4779 3 
27.2802 21.5357 10.0445 3 
2.87112 28.712 8.61289 3 
2.87109 28.7117 11.4844 3 
2.87143 25.8413 8.61246 3 
0.00239578 25.8429 8.61099 3 
2.8713 25.8409 11.4842 3 
1.43643 27.2771 10.0482 3 
0.00179389 25.8423 11.4833 3 
5.74127 28.7112 8.61296 3 
5.74158 28.711 11.4844 3 
5.74122 25.8409 8.61258 3 
4.30631 27.2762 10.0487 3 
7.17677 27.2758 10.0485 3 
5.74157 25.8404 11.4843 3 
8.61174 28.7113 8.61247 3 
11.4833 28.7114 11.4836 3 
11.4827 28.7119 8.61176 3 
8.61165 25.841 8.61192 3 
11.4818 25.8422 8.61031 3 
8.61231 28.711 11.4841 3 
10.0472 27.2764 10.0477 3 
8.61239 25.8404 11.4839 3 
11.4824 25.8416 11.4826 3 
14.3547 28.7119 11.4831 3 
14.3532 25.8435 8.60895 3 
12.918 27.2774 10.0466 3 
15.7899 27.2783 10.0456 3 
14.3532 25.8432 11.4808 3 
17.2259 25.8445 8.60801 3 
20.0995 25.8456 8.60715 3 
20.1009 25.8458 11.4779 3 
18.6627 27.2791 10.0449 3 
17.2261 25.8443 11.4792 3 
22.9736 25.8464 8.60671 3 
22.9758 25.8473 11.4778 3 
24.409 27.2805 10.0448 3 
21.5361 27.2801 10.0444 3 
25.8459 25.8457 8.60786 3 
25.8451 25.8449 11.4815 3 
27.279 27.2789 10.0469 3 
1.43559 1.43546 12.9199 3 
1.43546 1.4354 15.7909 3 
2.87047 2.87024 14.3555 3 
0.000682791 0.00066777 14.3553 3 
4.3061 1.43452 12.92 3 
7.1769 1.43409 12.9199 3 
5.74119 2.86945 14.3554 3 
4.30617 1.43446 15.7909 3 
7.17716 1.43402 15.7909 3 
10.048 1.43419 12.9197 3 
11.4838 2.86952 14.355 3 
8.61231 2.86927 14.3553 3 
10.0485 1.43413 15.7908 3 
12.9195 1.43445 12.9194 3 
15.791 1.4348 12.919 3 
12.9201 1.43425 15.7907 3 
15.7915 1.43438 15.7905 3 
14.3553 2.86993 14.3548 3 
18.6625 1.43528 12.9187 3 
20.0977 2.87086 14.3548 3 
17.2265 2.8704 14.3547 3 
18.6625 1.43484 15.7903 3 
21.5342 1.43591 12.9188 3 
24.4057 1.43635 12.9193 3 
22.9691 2.8712 14.3551 3 
22.9702 0.000968545 14.3546 3 
21.5335 1.43556 15.7905 3 
24.4051 1.43615 15.7907 3 
27.2769 1.43624 12.9197 3 
27.2766 1.43614 15.7908 3 
28.7117 2.87109 14.3554 3 
25.8406 2.87137 14.3553 3 
25.8418 0.00137543 14.355 3 
1.43487 4.30599 12.92 3 
1.43459 7.17676 12.9199 3 
2.86988 5.74096 14.3554 3 
1.43475 4.30603 15.7909 3 
1.43447 7.17695 15.7909 3 
7.17629 4.3044 15.7908 3 
4.30536 4.30504 12.9198 3 
7.176 4.30431 12.9196 3 
4.30475 7.17576 12.9196 3 
7.17451 7.17419 12.919 3 
4.30541 4.30509 15.7909 3 
4.30487 7.17596 15.7908 3 
7.17488 7.17448 15.7907 3 
5.7402 5.73983 14.3552 3 
10.0472 4.30427 12.9192 3 
10.0452 7.17342 12.9183 3 
11.4827 5.73966 14.3546 3 
10.0478 4.30448 15.7907 3 
10.046 7.17406 15.7905 3 
8.61103 5.73916 14.355 3 
12.9188 4.30477 12.9188 3 
15.7905 4.30547 12.9187 3 
12.9165 7.17382 12.9167 3 
15.7896 7.17526 12.917 3 
14.3542 5.74069 14.354 3 
12.9194 4.30517 15.7905 3 
15.7905 4.30595 15.7903 3 
12.9181 7.17549 15.7902 3 
15.7891 7.17725 15.7896 3 
18.662 4.30598 12.919 3 
18.6621 7.17603 12.918 3 
20.0972 5.74186 14.355 3 
17.2258 5.74156 14.3544 3 
18.6615 4.30644 15.7905 3 
18.6605 7.17789 15.7905 3 
21.5335 4.30633 12.9193 3 
24.4049 4.3065 12.9197 3 
21.5339 7.17645 12.919 3 
24.405 7.177 12.9196 3 
22.9689 5.74183 14.3552 3 
21.5329 4.30655 15.7907 3 
21.5328 7.1774 15.7907 3 
24.4043 7.17743 15.7908 3 
24.4044 4.3066 15.7908 3 
28.7112 5.74175 14.3555 3 
27.2761 4.3065 12.9199 3 
27.2758 7.17725 12.9199 3 
25.8402 5.74193 14.3554 3 
27.2758 4.30656 15.7908 3 
27.2754 7.17751 15.7908 3 
1.43475 10.0479 12.9198 3 
2.86977 8.6121 14.3554 3 
1.4346 10.0483 15.7909 3 
2.87003 11.4836 14.3552 3 
4.30478 10.047 12.9194 3 
7.17379 10.045 12.9184 3 
5.74009 11.4825 14.3548 3 
4.30501 10.0475 15.7908 3 
7.17449 10.0457 15.7906 3 
5.73961 8.61074 14.355 3 
10.0413 10.0411 12.9165 3 
8.60889 8.60856 14.3545 3 
8.60876 11.4799 14.3541 3 
11.4751 11.4749 14.3545 3 
10.0429 10.0426 15.7903 3 
11.4801 8.60843 14.354 3 
12.909 10.0374 12.9094 3 
15.7881 10.041 12.9109 3 
14.3513 8.60976 14.3513 3 
12.916 10.0447 15.7906 3 
15.7854 10.0474 15.7859 3 
14.3391 11.4698 14.3384 3 
18.6643 10.043 12.914 3 
17.225 8.61157 14.3526 3 
18.6601 10.0479 15.7898 3 
17.2259 11.4753 14.3453 3 
20.1021 11.4786 14.3504 3 
20.0977 8.6119 14.3544 3 
21.5359 10.0454 12.9169 3 
24.4048 10.0481 12.9191 3 
22.9679 11.4848 14.3546 3 
21.5335 10.0478 15.7905 3 
24.4036 10.0492 15.7908 3 
22.9692 8.61243 14.355 3 
28.7112 8.61266 14.3554 3 
27.2762 10.0479 12.9196 3 
25.8399 8.61306 14.3553 3 
28.7114 11.4838 14.3554 3 
27.2756 10.0484 15.7909 3 
25.8406 11.4835 14.3551 3 
1.43492 12.9192 12.9196 3 
1.4351 15.7906 12.9193 3 
1.43467 12.9198 15.7909 3 
1.43464 15.7912 15.7907 3 
2.87032 14.355 14.3551 3 
4.30523 12.9186 12.919 3 
7.17417 12.9164 12.9169 3 
4.30578 15.7904 12.919 3 
7.17557 15.7896 12.9172 3 
4.30564 12.9192 15.7907 3 
7.17591 12.918 15.7903 3 
4.30628 15.7904 15.7906 3 
7.17762 15.7891 15.7897 3 
5.7411 14.3541 14.3542 3 
10.0377 12.9088 12.9094 3 
10.0413 15.7881 12.911 3 
11.4701 14.339 14.3384 3 
10.045 12.9158 15.7906 3 
10.0477 15.7854 15.7859 3 
8.61009 14.3512 14.3514 3 
14.2568 14.2567 14.2512 3 
12.8783 12.8782 12.8756 3 
15.7889 12.8922 12.8873 3 
12.8924 15.7889 12.8874 3 
15.7804 15.7801 12.8836 3 
12.9136 12.9134 15.8009 3 
15.7679 12.9086 15.7596 3 
12.9089 15.7678 15.7596 3 
15.6402 15.6399 15.3885 5 
18.6767 12.9014 12.8985 3 
18.6567 15.7957 12.9101 3 
18.6716 12.9075 15.781 3 
18.6251 15.8272 15.8038 5 
17.2585 14.3043 14.3095 3 
20.0902 14.3622 14.3529 3 
21.5332 12.9193 12.9158 3 
24.4074 12.9167 12.917 3 
21.5512 15.7756 12.8986 3 
22.974 14.3502 14.3504 3 
24.4098 15.788 12.9141 3 
21.5284 12.9241 15.7909 3 
24.4049 12.919 15.7905 3 
21.5449 15.7807 15.781 3 
24.4047 15.7922 15.7898 3 
28.7113 14.3554 14.3552 3 
27.2767 12.9188 12.9191 3 
27.2769 15.7903 12.9183 3 
25.841 14.3548 14.3545 3 
27.2756 12.9198 15.7908 3 
27.275 15.7919 15.7906 3 
1.43538 18.6622 12.9191 3 
2.87062 17.2262 14.355 3 
1.43491 18.6621 15.7906 3 
2.87085 20.0975 14.3551 3 
4.30658 18.6614 15.7907 3 
4.30612 18.6619 12.9193 3 
7.17625 18.6622 12.9183 3 
7.17817 18.6605 15.7906 3 
5.74183 17.2257 14.3546 3 
5.74196 20.0971 14.3552 3 
10.0432 18.6643 12.9142 3 
11.479 20.1021 14.3505 3 
8.61216 20.0977 14.3545 3 
8.61186 17.225 14.3528 3 
10.0483 18.6602 15.7899 3 
11.4756 17.2259 14.3454 3 
12.9017 18.6767 12.8986 3 
15.7961 18.6565 12.9102 3 
14.3627 20.09 14.353 3 
12.9079 18.6715 15.781 3 
15.8276 18.6249 15.8038 5 
14.3046 17.2583 14.3095 3 
20.196 20.1955 14.2511 3 
18.6724 18.672 12.8836 3 
18.8126 18.8121 15.3885 5 
17.2264 17.226 14.3921 5 
17.1943 20.1479 14.3095 3 
20.1482 17.1938 14.3095 3 
21.5604 18.6633 12.8874 3 
22.9773 17.2264 14.3454 3 
21.5439 18.6843 15.7595 3 
24.4052 18.6669 15.7859 3 
22.9828 20.1131 14.3384 3 
24.4117 18.6642 12.9111 3 
28.7113 17.2268 14.3546 3 
28.712 20.0983 14.3543 3 
27.2775 18.6628 12.9173 3 
27.2754 18.6633 15.7897 3 
25.8429 20.1011 14.3514 3 
25.8412 17.2273 14.3528 3 
1.43585 21.5338 12.9191 3 
1.43623 24.4054 12.9195 3 
1.43545 21.5332 15.7907 3 
1.43599 24.4049 15.7908 3 
0.00089439 22.9699 14.3548 3 
2.87107 22.9689 14.3553 3 
4.30624 21.5333 12.9196 3 
7.17654 21.5338 12.9192 3 
4.30636 24.4047 12.9199 3 
7.17701 24.4047 12.9197 3 
4.30653 21.5327 15.7908 3 
7.17755 21.5327 15.7909 3 
4.3065 24.4043 15.7909 3 
7.17753 24.4042 15.7909 3 
5.74179 22.9687 14.3554 3 
10.0457 21.5358 12.917 3 