ITEM: TIMESTEP
10000
ITEM: NUMBER OF ATOMS
2001
ITEM: BOX BOUNDS pp pp pp
0.0000000000000000e+00 2.8712000000000000e+01
0.0000000000000000e+00 2.8712000000000000e+01
0.0000000000000000e+00 2.8712000000000000e+01
ITEM: ATOMS x y z 
1.77034 1.46411 1.31784 
2.92107 2.85244 2.8038 
2.92607 0.150145 2.84724 
3.12644 2.76414 0.000627216 
0.0578292 2.92599 2.76828 
0.0626174 0.128744 2.86352 
4.42352 1.5723 1.50317 
7.29001 1.49875 1.42317 
5.83941 3.05385 2.90552 
5.79091 0.04349 2.74153 
10.1496 1.36859 1.53175 
8.685 2.94615 2.76543 
11.5412 2.82033 2.86004 
11.5025 2.83887 0.0547099 
8.65569 2.91564 0.0678735 
8.61949 0.126233 0.0336164 
13.1971 1.47808 1.28862 
15.7244 1.34087 1.25896 
14.3997 2.79618 2.75803 
18.766 1.42992 1.44124 
17.1964 2.94737 2.94666 
20.2678 3.02717 2.75225 
20.1536 0.152037 2.99578 
17.2978 0.0584095 2.99148 
17.3129 2.81343 0.00382716 
20.2216 2.97581 0.0907548 
21.5562 1.43999 1.36969 
24.3755 1.45553 1.38048 
22.9405 3.00474 2.99815 
23.0043 0.108334 2.83414 
27.1719 1.39642 1.47275 
27.3281 1.57685 3.92477 
25.8431 2.95632 2.72747 
25.7131 0.018621 0.0694268 
1.57857 4.13755 1.35133 
1.68514 7.23161 1.35945 
1.69957 4.14654 4.10003 
2.84143 5.87947 2.92951 
0.163049 5.6246 0.0330255 
4.49923 4.5476 1.3735 
7.24805 4.34833 1.34386 
4.39178 7.11699 1.42765 
7.08039 7.14357 1.59174 
5.77337 5.67017 3.03771 
10.1773 4.26802 1.43126 
10.0757 7.08876 1.54296 
8.49538 5.78995 2.89409 
11.318 5.77658 3.03346 
13.0506 4.26761 1.53319 
16.0206 4.37886 1.39695 
12.9607 7.16391 1.43833 
15.7171 7.20923 1.41811 
14.321 5.6449 2.75879 
18.7632 4.21846 1.31312 
18.6539 7.18384 1.53343 
17.3091 5.65019 2.76516 
20.2277 5.58002 2.71139 
20.0777 5.85148 0.0654602 
21.7963 4.19383 1.34376 
24.2794 4.15297 1.55755 
21.6195 7.23147 1.46253 
23.1258 5.83494 2.81698 
24.4075 7.06547 1.26125 
28.6025 5.64616 2.81339 
27.2379 4.33966 1.35424 
27.4227 7.26654 1.39693 
25.841 5.70353 2.87203 
25.9297 5.65895 0.0815519 
1.5161 9.93985 1.53198 
2.8324 8.6787 2.86461 
2.86333 11.6171 3.00205 
0.0335032 11.3568 2.6779 
0.155237 8.49878 2.89047 
0.0199012 8.54308 0.0647328 
3.0422 8.60527 0.0191531 
4.37055 10.0417 1.52363 
7.11008 9.80511 1.39231 
5.46477 8.70565 3.09559 
5.77138 11.5921 2.90172 
9.99426 10.0354 1.78422 
8.65231 8.63419 3.04549 
11.6319 8.59601 3.02293 
8.60912 11.6152 2.87827 
11.5499 11.5218 2.91106 
11.3116 11.464 0.0759871 
8.63529 11.4587 0.198358 
8.52421 8.42772 0.0336466 
11.515 8.65432 0.203883 
12.7278 10.2269 1.45159 
15.8769 9.99695 1.40437 
14.1636 8.69459 2.9116 
14.3253 11.5371 2.86546 
14.3022 11.4953 0.198366 
14.2314 8.83441 0.0501595 
18.8015 10.1722 1.35971 
17.1851 8.78333 2.74568 
20.0918 8.62502 2.76833 
17.1734 11.5294 2.98526 
20.0531 11.5345 2.88961 
20.1437 8.65531 0.107207 
17.1394 11.5063 0.0264938 
21.4491 10.2138 1.50185 
24.318 10.2586 1.35761 
23.0555 8.7105 2.76278 
23.0104 11.2838 2.96289 
22.8586 11.6107 0.0176842 
22.975 8.71081 0.0333459 
28.6849 11.4278 0.0739239 
27.3852 9.91144 1.39364 
25.873 8.59937 2.71181 
25.8242 11.3811 2.88264 
25.7437 11.551 0.0760308 
1.4985 12.9653 1.54492 
1.28473 15.6486 1.6014 
2.93783 14.3792 3.02402 
2.73482 14.2752 0.085566 
4.36141 13.0733 1.49161 
7.08864 12.9081 1.50208 
4.32121 15.7465 1.37462 
7.18283 15.9195 1.32178 
5.83747 14.6673 2.93294 
9.99342 13.2549 1.49202 
9.70166 15.8361 1.29854 
8.53135 14.6085 3.00513 
11.3798 14.5284 2.84061 
12.8305 13.1038 1.43977 
15.707 12.957 1.3337 
12.7926 15.9452 1.53538 
15.6181 15.8319 1.53368 
14.1872 14.4593 2.85168 
18.6345 12.7799 1.49647 
18.7892 15.7519 1.44972 
17.0614 14.4624 2.75 
19.8518 14.3997 2.86986 
20.1199 14.4719 0.0750358 
17.1754 14.4296 0.0294291 
21.3865 13.0791 1.60465 
24.3364 13.0649 1.42152 
21.4823 15.6648 1.59176 
24.4294 15.6821 1.5132 
22.9444 14.2694 2.89076 
28.5304 14.2756 2.83873 
28.6952 14.3518 0.0170942 
27.2115 12.8138 1.34645 
27.0168 15.7936 1.69189 
25.7845 14.2388 3.04912 
1.44343 18.6384 1.30225 
2.74832 17.0411 2.6763 
2.83218 20.2636 2.79506 
4.06766 18.7454 1.42847 
0.136468 19.9298 2.84824 
2.83698 20.198 0.00275504 
7.11056 18.5236 1.4823 
5.62004 17.3891 2.86166 
5.75001 20.0857 2.83926 
5.71324 20.1636 0.145517 
10.1353 18.5404 1.28907 
8.59587 17.4591 2.87428 
11.2222 17.1336 2.87933 
8.67282 20.1938 2.67795 
11.4994 20.1967 2.88879 
12.6983 18.5776 1.45367 
15.8047 18.632 1.58284 
14.2699 17.2839 3.04947 
14.3297 19.9586 2.84703 
14.4536 17.2047 0.0928632 
18.6092 18.645 1.53855 
17.1101 17.2384 2.92764 
19.9991 17.3482 2.91612 
17.2798 20.2579 3.13375 
20.0925 20.1278 2.75844 
20.1661 20.0333 0.156992 
20.1762 17.1553 0.0526377 
17.1001 20.0966 0.224535 
21.551 18.6705 1.47644 
24.4281 18.6606 1.6646 
22.9768 17.0696 2.87253 
22.9364 20.1263 2.97392 
23.1624 19.9718 0.167432 
23.1178 17.069 0.0720822 
28.5823 17.1531 2.83298 
27.1449 18.8131 1.44228 
25.9403 17.2375 2.94833 
25.9371 20.1692 3.02998 
25.7246 20.042 0.137867 
28.4263 17.0573 0.269997 
25.6812 17.2728 0.0731841 
28.6381 20.0094 0.0950603 
1.3119 21.654 1.51103 
1.2506 24.3592 1.18928 
2.84739 23.031 2.66397 
2.94176 22.9344 0.0192751 
0.0098468 23.0617 3.0939 
4.27203 21.6148 1.49182 
7.2209 21.4268 1.42887 
5.793 22.8578 2.93506 
7.09592 24.4231 4.07087 
4.34899 24.3399 1.3558 
5.76944 22.9777 0.0778068 
7.21638 24.4884 1.60974 
10.0084 21.567 1.38435 
8.71733 23.0869 2.78883 
11.5632 22.99 2.75209 
10.0034 24.2882 1.3136 
13.0657 21.5156 1.49901 
15.8071 21.5765 1.44965 
15.9874 24.2484 1.42123 
14.3487 22.9778 2.85528 
13.0288 24.483 1.32309 
18.6128 21.4067 1.42113 
18.7645 24.2709 1.38862 
17.4347 22.8863 2.88051 
20.0404 22.9854 2.92097 
21.5282 21.452 1.49173 
24.4132 21.5424 1.54754 
21.4531 24.556 1.34186 
22.7741 23.0066 2.77492 
24.3997 24.3858 1.65427 
22.8678 22.9334 0.200223 
27.3661 21.5577 1.70433 
27.3039 24.1607 1.59461 
25.8408 23.0297 3.01044 
25.8463 22.9482 0.106525 
1.23236 27.1881 1.37771 
2.79141 25.7875 2.571 
2.94996 28.5293 0.00769911 
4.17421 27.2279 1.53548 
7.02865 27.2743 1.44807 
5.64971 25.8663 2.79514 
8.67683 28.6499 2.92784 
11.5131 28.6654 2.72061 
11.6177 28.694 0.069954 
10.0922 27.2234 1.17133 
8.62776 25.8907 2.76867 
11.4938 25.7401 2.87343 
8.54204 25.8868 0.0170955 
14.4474 28.633 2.92365 
13.03 27.1442 1.44076 
15.8998 27.3094 1.4495 
14.4585 25.721 2.75558 
14.6164 25.9697 0.111726 
18.7291 27.2542 1.56665 
17.3406 25.7844 2.84959 
20.1185 26.0251 2.7041 
17.3725 25.8365 0.0791665 
20.2593 28.594 0.0902344 
21.7339 27.2932 1.41579 
23.0822 25.8311 2.92753 
24.3114 27.3406 1.45906 
25.7096 28.6356 2.85737 
28.7028 25.8897 3.0007 
27.2901 27.2648 1.65648 
25.8239 25.8503 3.03035 
25.9627 25.9216 0.113284 
1.43852 1.52218 4.21952 
1.46351 1.41614 7.20577 
2.90828 2.68915 5.56938 
0.20268 0.0404645 5.68727 
0.0723182 2.82538 5.63278 
4.52478 1.48176 4.17494 
7.29989 1.44638 4.38719 
4.27204 1.28474 7.07558 
7.35439 1.33025 6.88456 
5.9158 2.73324 5.58913 
10.1396 1.56895 4.40896 
10.1422 1.29009 7.08011 
8.70293 2.82221 5.70633 
11.6206 2.94379 5.64989 
11.6248 0.113773 5.65288 
13.0882 1.33515 4.26027 
15.8636 1.34609 4.36485 
12.9516 1.321 7.10996 
15.6697 1.49287 7.29184 
14.4159 2.82104 5.69495 
18.7164 1.46289 4.50025 
18.6411 1.48423 7.21551 
17.1953 2.88812 5.80477 
20.0948 2.8891 5.82101 
17.1591 0.0501012 5.73737 
20.2751 0.0190605 5.8043 
21.7688 1.47651 4.27977 
24.4828 1.67925 4.1857 
21.411 1.64814 7.21981 
24.4043 1.41845 7.13395 
23.1746 2.98841 5.77057 
23.0448 0.0912699 5.80847 
27.3487 1.41591 7.21212 
25.9388 3.02976 5.75299 
25.8254 0.150083 5.59916 
1.57777 7.13377 4.32302 
1.52695 4.22512 7.08015 
1.43292 7.3237 7.20808 
2.69817 5.74044 5.85879 
4.0954 4.30788 7.09634 
0.0803279 5.73884 5.64033 
7.49353 4.17431 4.51811 
4.22157 4.13472 4.16364 
4.32137 7.19485 4.38174 
7.19365 7.16223 4.40513 
4.28829 7.23627 7.0865 
7.16618 4.20968 7.02397 
5.7787 5.46875 5.69926 
7.03208 6.97325 7.01634 
9.96436 4.31284 4.361 
10.0264 7.2156 4.39236 
10.1153 4.15577 7.22874 
8.70174 5.72325 5.7784 
9.95765 7.30932 7.12833 
11.4843 5.76243 5.85504 
12.9531 4.25549 4.2489 
15.7996 4.21687 4.32429 
12.9838 7.20819 4.36203 
15.7702 7.23925 4.1863 
12.8409 4.24459 7.21884 
15.7918 4.28696 6.96535 
12.9936 7.22373 7.33069 
14.1365 5.60682 5.91389 
15.8431 7.12927 7.05399 
18.8462 4.3455 4.21995 
18.7123 7.12041 4.11888 
18.4752 4.44098 7.06324 
17.2215 5.73139 5.54727 
18.5213 7.01343 7.17006 
20.2971 5.829 5.69671 
21.6857 4.26265 4.50194 
24.6055 4.36703 4.50186 
21.5904 7.55781 4.32576 
24.4587 7.30154 4.17723 
21.6805 4.47382 6.94676 
21.6908 7.28046 7.2114 
23.3197 5.81559 5.53548 
24.3695 7.30039 7.20284 
27.2854 4.43256 4.37969 
27.3534 7.19639 4.10791 
24.6904 4.48741 7.25618 
27.3396 4.46304 7.17067 
26.0741 6.13901 5.71089 
27.4276 7.33497 7.29998 
1.42888 10.1586 4.21369 
1.50789 10.1445 7.24258 
2.92772 8.76824 5.69763 
2.83069 11.7047 5.71338 
0.00121191 11.395 5.78515 
0.124944 8.68703 5.84841 
4.39669 10.3884 4.4773 
7.3433 10.1878 4.22398 
4.39635 10.1924 6.94813 
5.8362 8.7081 5.63809 
7.30026 10.2028 7.22889 
5.95922 11.7018 5.68791 
10.0624 10.2125 4.4366 
8.49889 8.80527 5.76473 
10.0057 10.1611 7.15938 
11.3608 8.43885 5.6072 
8.65601 11.6547 5.64905 
11.6277 11.5754 5.64477 
12.9119 10.2879 4.22534 
15.7671 9.9374 4.20297 
12.937 9.94154 7.17468 
14.1962 8.56936 5.72723 
15.7515 9.98228 7.20145 
14.2648 11.63 5.84397 
18.6689 9.96324 4.34621 
17.08 8.53778 5.48455 
18.5224 10.063 7.20454 
19.8505 8.76839 5.85633 
17.1067 11.6554 5.76682 
20.1646 11.4063 5.74023 
21.508 10.0547 4.33294 
24.5525 10.0495 4.33432 
21.4164 10.0749 7.22751 
22.8928 8.67055 5.66145 
22.9574 11.5939 5.80406 
24.2004 10.0699 7.10138 
27.3704 9.96943 4.36173 
26.0128 8.64753 5.8833 
27.3457 10.1246 7.40009 
25.7466 11.3851 5.93156 
1.38121 12.8864 4.36879 
1.21324 15.7124 4.34086 
1.34466 12.8668 7.24788 
1.42786 15.6938 7.11518 
2.9109 14.4566 5.59478 
4.25386 15.9165 4.39078 
4.3212 12.9714 4.27061 
7.14081 13.0579 4.21829 
7.09994 16.0682 4.53379 
4.27642 13.1345 7.04882 
7.10576 13.0555 7.07426 
4.247 15.8914 7.26882 
5.67058 14.446 5.76516 
7.0774 15.8844 7.11537 
9.99122 13.0304 4.27456 
10.0986 15.8584 4.52776 
10.1301 12.9759 7.25461 
8.65474 14.5083 5.68955 
9.97835 15.979 7.23115 
11.3265 14.482 5.77522 
12.638 13.1391 4.27457 
15.7711 12.9595 4.16309 
12.9435 16.0229 4.38438 
15.887 15.7535 4.38287 
12.8168 13.0825 7.07079 
15.7141 13.0326 7.22605 
12.9587 15.8165 7.14361 
14.3077 14.3407 5.60839 
15.8012 15.9933 7.18404 
18.5187 12.9817 4.50057 
18.6207 15.8331 4.18844 
18.6651 12.9496 7.28244 
17.2747 14.495 5.93568 
18.641 15.9191 7.30107 
20.0406 14.5223 5.87492 
21.49 12.9256 4.28533 
21.2613 15.8437 4.34249 
24.5765 15.7729 4.27301 
24.3595 12.8065 4.23851 
21.4311 12.8598 7.16484 
24.441 12.8044 7.23576 
21.7693 15.6615 7.19965 
23.078 14.3652 5.80905 
24.4474 15.8011 7.0956 
27.2446 12.7441 4.21935 
27.1839 15.7856 4.32187 
28.5739 14.3798 5.76716 
27.3394 13.0354 7.29518 
25.9639 14.3265 5.79553 
27.2557 15.949 7.02216 
1.56041 18.705 4.30278 
1.39461 18.5632 7.03322 
2.93288 17.3583 5.69553 
2.93071 20.0624 5.72479 
0.110971 20.1461 5.89808 
4.37929 18.6724 4.29997 
7.06556 18.6403 4.36967 
4.3659 18.7121 7.39131 
5.67284 17.4439 5.88598 
7.24887 18.6924 7.22166 
5.66806 20.1186 5.82365 
9.77365 18.7562 4.2303 
8.58435 17.449 5.80065 
10.0977 18.8328 7.1834 
11.3846 17.3563 5.77941 
8.66904 20.2759 5.59128 
11.3068 20.181 5.63588 
12.7972 18.7145 4.39932 
15.8333 18.7636 4.43739 
12.7575 18.718 7.26598 
14.3485 17.1981 5.76692 
15.739 18.8025 7.28166 
14.2668 20.0135 5.62645 
18.6952 18.6604 4.37543 
17.3641 17.3032 5.79339 
18.6633 18.8261 7.19274 
20.1946 17.1465 5.88526 
17.124 20.1992 5.97665 
20.3657 20.0687 5.84965 
21.6234 18.5238 4.34526 
24.393 18.8263 4.32696 
21.4985 18.5506 7.18608 
23.0982 17.165 5.6008 
24.5663 18.5935 7.17475 
22.9277 20.1294 5.7348 
27.3549 18.7353 4.36873 
28.6117 17.0883 5.67058 
25.8173 17.2972 5.7463 
27.372 18.5962 7.0729 
25.922 20.128 5.83504 
1.44345 21.3986 4.34153 
1.45223 24.2124 4.21243 
1.59371 21.704 7.19915 
2.88814 23.0318 5.74127 
1.36785 24.4524 7.34801 
0.0489788 22.9697 5.92463 
4.20599 21.56 4.398 
7.15674 21.3884 4.23815 
4.29886 24.35 4.17777 
4.31488 21.6298 7.16501 
7.13983 21.4098 7.13052 
4.39053 24.4803 7.19448 
5.73074 22.9873 5.83757 
7.11399 24.5378 7.23312 
10.031 21.5725 4.17976 
9.93748 24.3523 4.30271 
10.1531 21.5734 7.04669 
8.5149 22.8766 5.71953 
10.1526 24.3093 7.18466 
11.4988 23.1405 5.68163 
12.7066 21.5284 4.43371 
15.7397 21.5102 4.34774 
12.8854 24.3842 4.34195 
15.9078 24.375 4.2719 
13.0657 21.4861 7.2982 
15.7566 21.5425 7.30116 
14.3982 22.9716 5.79657 
15.9806 24.3859 7.09112 
13.0307 24.2816 7.28017 
18.8421 21.4112 4.46985 
18.6607 24.4988 4.4323 
18.6466 21.5173 7.35904 
17.1628 22.997 5.63517 
18.7002 24.4005 7.37217 
20.2103 22.7822 5.67746 
21.555 21.3921 4.38653 
24.3778 21.6134 4.43221 
21.468 24.395 4.25962 
24.2985 24.3087 4.5538 
21.513 21.676 7.33571 
21.5554 24.4994 7.25359 
22.7447 22.9213 5.68653 
24.6025 24.4483 7.08137 
24.4059 21.6977 7.30992 
27.4302 21.5896 4.33974 
27.338 24.4874 4.53864 
27.345 21.358 7.25965 
26.0465 23.0142 5.79164 
27.3124 24.5053 7.10599 
1.51767 27.5227 4.16703 
2.86289 28.616 5.73536 
1.59543 27.1821 7.32578 
2.69995 25.7323 5.59084 
0.130158 25.8568 5.62785 
4.23336 27.3764 4.18489 
7.1794 27.1776 4.24555 
5.59503 28.6576 5.58752 
4.31827 27.4228 7.18633 
5.60663 25.7526 5.6227 
7.14119 27.3162 7.0054 
10.094 27.4542 4.26435 
8.5858 28.5453 5.75675 
8.65524 25.8041 5.62458 
10.1886 27.1093 7.05501 
11.5061 25.5656 5.59733 
12.8811 27.2098 4.25169 
15.6763 27.1892 4.13358 
14.3992 28.6406 5.71836 
12.9343 27.1665 7.03503 
14.3583 25.6805 5.83632 
16.0251 27.3064 6.96188 
18.7986 27.1865 4.40841 
17.1249 25.8981 5.62032 
18.7114 27.4266 7.13614 
20.0746 25.8863 5.80868 
21.4939 27.3118 4.54839 
24.2051 27.182 4.3648 
21.5158 27.2924 7.14404 
22.9654 25.72 5.7965 
24.4323 27.2826 7.21652 
27.2871 27.4032 4.475 
26.0384 26.0603 5.80012 
27.2688 27.3656 7.32272 
2.97932 2.84073 8.50329 
2.82705 0.249856 8.75533 
0.0267522 0.0634241 8.55075 
1.3871 1.48773 10.2188 
2.96194 3.03589 11.4293 
2.75678 0.103134 11.6708 
5.76524 2.80124 8.4834 
5.62595 0.11652 8.60951 
4.32161 1.46308 10.2034 
7.22471 1.35718 9.75162 
5.81405 2.71988 11.5148 
5.73988 0.14233 11.3743 
8.54296 2.92601 8.56624 
11.4995 2.67611 8.63456 
8.81928 0.0138696 8.55153 
10.1555 1.38626 10.0386 
8.5025 2.94773 11.2015 
11.5229 2.97728 11.436 
11.6321 0.114602 11.6316 
14.3124 2.93274 8.44763 
13.0871 1.34893 9.97654 
15.7918 1.63416 9.99176 
14.3317 2.97772 11.5281 
14.4451 0.110644 11.5224 
17.1828 2.89553 8.61743 
20.073 2.96842 8.59394 
17.1578 0.206437 8.44245 
20.2935 0.0465965 8.6146 
20.274 0.165724 11.4569 
17.3601 0.162665 11.4468 
18.7593 1.47797 9.96428 
17.4062 2.99885 11.3124 
20.0343 3.14993 11.3703 
22.9795 2.67804 8.53826 
21.5246 1.44569 10.1555 
24.2772 1.33095 10.0997 
22.9635 2.83721 11.4598 
28.6522 2.89029 8.5882 
25.9271 2.91195 8.47643 
28.6986 2.79912 11.7088 
27.2471 1.58332 10.01 
25.6486 2.84691 11.4018 
28.5768 0.249814 11.4992 
2.82169 5.78817 8.43108 
0.101864 5.72641 8.36112 
1.41864 4.2943 10.0205 
1.38504 7.16593 10.0384 
2.84094 6.0079 11.2655 
0.138922 5.70989 11.4683 
5.75835 5.81315 8.48335 
4.43595 7.24024 9.705 
4.22421 4.39928 9.90602 
7.0819 4.29759 9.7809 
7.10432 7.37496 10.0108 
5.75842 5.78146 11.3662 
8.69279 5.71335 8.55197 
11.3383 5.8528 8.5857 
9.94663 4.28685 9.89904 
9.9983 7.35034 10.0782 
8.4216 5.72467 11.3089 
11.3597 5.86874 11.3572 
14.3332 5.82531 8.89871 
15.768 4.257 10.0688 
12.8809 4.23507 10.1248 
12.9775 7.22026 10.261 
15.8875 7.20713 9.84561 
14.3629 5.64276 11.4667 
17.1331 5.72022 8.61235 
20.0612 5.77746 8.53431 
18.6246 4.50335 9.94615 
18.5132 7.10616 9.90733 
17.1558 5.64592 11.4542 
19.9844 5.98953 11.4694 
23.0327 5.63553 8.54106 
21.4794 4.33315 9.99515 
21.5375 7.13858 9.98298 
22.9263 5.94444 11.4482 
24.517 7.16933 10.1001 
24.2648 4.29251 9.96377 
25.9917 5.77097 8.73186 
27.4032 4.42546 10.1204 
27.3779 7.3287 10.29 
25.9076 5.75484 11.4972 
3.04696 8.76051 8.48553 
2.99703 11.7134 8.4218 
0.100078 11.5132 8.72464 
0.160414 8.77692 8.6407 
1.50504 10.0839 10.1393 
2.87915 8.54217 11.294 
3.02944 11.5006 11.5112 
0.0795137 11.726 11.5119 
0.19282 8.54365 11.4933 
5.77885 8.72584 8.29541 
5.79941 11.7249 8.38291 
4.31683 10.0686 9.90669 
7.06916 10.2172 9.91627 
5.72331 8.58194 11.2703 
5.70099 11.4495 11.4756 
8.43718 8.76063 8.48914 
11.667 8.78788 8.76286 
8.62552 11.4415 8.70024 
11.6485 11.4715 8.56977 
10.0973 10.1461 10.015 
8.79323 8.60718 11.365 
11.5121 8.58675 11.4485 
8.4715 11.4887 11.5872 
11.5596 11.2973 11.2993 
14.5968 8.38675 8.58942 
14.217 11.4873 8.55543 
13.1426 10.109 10.0327 
15.7879 10.1506 10.133 
14.628 8.69279 11.3961 
14.3309 11.419 11.5187 
17.4306 8.61626 8.50846 
20.0919 8.51425 8.52293 
17.1255 11.5341 8.56729 
20.0258 11.5305 8.60763 
18.7643 10.0629 10.084 
17.2457 8.64214 11.5352 
19.938 8.5461 11.7011 
17.232 11.5302 11.486 
20.1393 11.5546 11.6238 
22.9842 8.51456 8.65798 
22.9788 11.4323 8.66478 
21.399 10.0622 10.065 
22.8778 8.63953 11.3717 
22.7855 11.3679 11.5171 
24.4653 10.1482 10.1781 
25.8757 8.66954 8.71095 
25.8522 11.3709 8.70696 
27.4021 10.2141 10.1498 
25.9901 8.49818 11.486 
25.9195 11.527 11.6242 
2.8007 14.3884 8.52631 
0.154068 14.5259 8.75886 
1.64347 12.9512 10.096 
1.47087 15.8862 10.192 
2.91327 14.4189 11.6231 
0.0340692 14.3085 11.4918 
5.75323 14.3277 8.39214 
4.296 12.9133 9.98631 
7.21886 12.8211 10.1563 
4.33742 15.7087 10.0639 
7.15143 15.5958 10.0749 
5.70375 14.2648 11.5435 
8.59994 14.2521 8.60829 
11.5119 14.2597 8.63106 
10.0633 12.8786 9.84981 
10.0228 15.7111 9.97462 
8.58842 14.2263 11.4 
11.5135 14.1895 11.3463 
14.2885 14.3113 8.57777 
13.0638 12.9499 10.0021 
15.651 13.0652 9.95001 
12.846 15.8159 10.0754 
15.7143 15.778 9.85285 
14.1892 14.5043 11.3942 
17.0716 14.4081 8.58371 
20.1462 14.3169 8.71638 
18.6691 13.0024 10.0719 
18.6926 15.7082 9.99161 
17.2215 14.4011 11.3896 
20.0701 14.2162 11.3952 
22.8102 14.1663 8.66147 
21.4815 12.9702 10.1179 
21.6533 15.7054 10.1523 
23.0432 14.1623 11.5402 
24.5044 12.91 10.1123 
24.3082 15.7185 10.1438 
25.8204 14.3822 8.69426 
27.3117 13.0453 10.1522 
27.2644 15.8591 9.87118 
25.9016 14.4134 11.3468 
2.89498 17.3507 8.72411 
2.9076 20.0679 8.60029 
0.0134293 20.1539 8.68732 
0.169668 17.1031 8.6394 
1.3776 18.8037 10.1338 
3.028 17.3443 11.4719 
2.68066 20.1246 11.7738 
0.0815054 17.2347 11.416 
5.84332 17.318 8.69635 
5.82286 20.2157 8.61595 
4.48137 18.7608 10.2723 
7.13384 18.9296 9.96843 
5.72599 17.2562 11.4865 
5.81712 20.2166 11.5801 
8.68639 17.1556 8.67433 
11.4324 17.2205 8.63449 
8.70757 20.2152 8.43939 
11.5123 20.1859 8.68355 
10.0379 18.7874 9.86451 
8.56715 17.0968 11.5676 
11.3697 17.2494 11.4889 
8.79817 20.211 11.4155 
11.4177 20.2504 11.3729 
14.1779 17.416 8.73231 
14.3782 20.1692 8.80824 
12.8479 18.6133 10.136 
15.8991 18.65 10.0503 
14.3823 17.1182 11.5737 
14.3988 19.9229 11.5929 
17.2008 17.2586 8.60709 
20.2557 17.0565 8.60835 
17.2593 20.2607 8.79369 
20.1624 20.0348 8.59144 
18.7031 18.6278 10.0663 
17.3331 17.2267 11.4911 
20.2185 17.1371 11.3369 
17.2622 20.1041 11.5064 
20.0922 19.9032 11.4864 
22.9292 17.1267 8.62114 
22.98 20.1946 8.52835 
21.6692 18.6802 10.1245 
22.9805 17.2207 11.4022 
23.0755 20.0044 11.622 
24.4931 18.5943 9.8137 
25.9724 17.3021 8.71898 
25.9719 20.0939 8.69901 
28.6664 19.9432 11.5357 
27.3462 18.6198 10.0611 
25.9589 17.0888 11.3883 
25.8658 20.0945 11.3762 
2.86248 23.2198 8.74921 
1.35815 21.4545 9.95616 
1.35996 24.3563 10.1691 
2.74638 23.0536 11.7638 
5.75465 23.021 8.69805 
4.12493 21.5741 10.109 
7.2937 21.7101 10.0827 
4.39114 24.4343 10.1903 
7.11494 24.4151 10.0796 
5.92131 22.9376 11.5688 
8.72921 22.9048 8.56224 
11.6411 22.8254 8.65143 
9.93939 24.3778 9.95262 
10.0373 21.4975 10.0023 
8.72925 22.922 11.5792 
11.5543 22.9898 11.3747 
14.4677 23.0879 8.94741 
13.0334 21.4754 10.0494 
15.9346 21.6179 10.1093 
12.8819 24.4412 10.0611 
15.8655 24.422 10.2311 
14.1665 22.8659 11.7715 
17.3684 23.0177 8.69309 
20.3573 23.1381 8.73413 
20.1159 22.8791 11.61 
17.3553 23.0255 11.4869 
18.8628 21.6009 10.0445 
23.2057 23.0429 8.60635 
22.8428 22.8575 11.6104 
21.6086 21.4425 10.0821 
24.3475 24.3504 10.0641 
21.7662 24.4681 10.0685 
24.3194 21.3838 10.2052 
28.5962 22.9306 8.59469 
25.8712 23.066 8.75783 
28.6172 22.9187 11.5772 
27.4665 24.3705 10.2883 
25.8664 22.8122 11.61 
27.2983 21.4585 10.1081 
3.02485 25.9231 8.61106 
0.0948881 25.9118 8.63461 
2.88754 25.8672 11.3682 
1.51178 27.3903 10.201 
5.75192 26.0661 8.56292 
4.25228 27.4369 10.2162 
7.0792 27.3454 10.0209 
5.73231 25.8061 11.4252 
11.5728 28.5826 8.5826 
8.35412 25.965 8.61923 
11.7172 25.8609 8.59042 
8.54911 28.6058 11.4627 
10.0761 27.158 10.1393 
8.6374 25.871 11.4913 
11.5503 25.9051 11.3823 
14.3873 28.6424 8.54553 
14.3143 25.8099 8.55222 
13.0089 27.2991 10.0423 
15.6804 27.2084 10.0453 
14.2746 25.9029 11.5041 
17.1819 25.8294 8.66621 
20.2402 26.0222 8.7294 
20.1587 25.8754 11.5006 
18.6449 27.5212 10.06 
17.3665 25.7987 11.4244 
18.6737 24.6609 9.97184 
22.7709 28.6166 8.518 
23.2234 25.9269 8.52547 
22.9731 28.6983 11.3538 
23.0702 25.6461 11.6327 
24.3977 27.1977 10.1953 
21.5626 27.164 10.1528 
25.7429 28.6398 8.75056 
26.0572 25.7348 8.69015 
28.6816 25.7655 11.5606 
25.8409 25.7607 11.5814 
27.2129 27.2299 10.1718 
25.8723 28.7063 11.6461 
1.47285 1.58488 12.8801 
2.91427 0.182716 14.3501 
1.40286 1.43743 15.8794 
2.80539 2.96788 14.3731 
4.42041 1.41613 13.0206 
7.2385 1.35877 12.8115 
5.73645 2.97733 14.3255 
5.731 0.0854369 14.2857 
4.16811 1.5837 15.7691 
7.10799 1.54395 15.5578 
7.05489 4.09235 15.7416 
9.82435 1.39586 12.74 
11.3094 2.70744 14.3173 
8.58307 3.08347 14.1045 
11.4966 0.123033 14.3261 
9.95182 1.20576 15.6502 
12.9425 1.67839 12.9713 
15.9845 1.55157 12.8149 
14.4187 0.282812 14.1763 
12.855 1.46718 15.9323 
15.6626 1.28575 15.7959 
14.3008 3.05694 14.4612 
18.8813 1.49517 12.8074 
20.3195 3.06929 14.3524 
17.3823 2.87378 14.2714 
17.1373 0.0410327 14.1441 
18.7378 1.43912 15.6553 
21.5723 1.37091 12.8335 
24.4993 1.43858 12.7947 
22.9849 2.78744 14.2854 
23.016 0.0564307 14.1437 
21.555 1.44208 15.6099 
24.3031 1.42493 15.8374 
27.0599 1.3592 13.0381 
27.1487 1.39741 15.6628 
28.6167 3.04181 14.411 
25.707 2.74858 14.3992 
1.55968 4.46401 12.7904 
1.40324 7.29297 12.8805 
2.84787 5.78416 14.1521 
1.26028 4.40416 15.6586 
1.49335 7.1243 15.838 
4.4084 4.48554 12.892 
7.04967 4.35645 12.8632 
4.3255 7.15977 12.8932 
7.04439 7.32084 12.9209 
4.15163 4.48352 15.7086 
4.23222 7.25592 15.7816 
7.16301 7.015 15.7768 
5.81814 5.77372 14.4278 
9.92406 4.47656 12.6771 
10.0894 7.26761 12.8717 
11.5055 5.70471 14.1669 
9.9506 4.24492 15.7987 
10.1955 7.10699 15.6565 
8.47625 5.66121 14.3662 
12.9003 4.13088 12.9079 
15.7488 4.25627 13.1153 
12.7831 7.11963 12.9306 
15.8101 7.22106 12.8698 
14.3869 5.80617 14.3306 
12.7973 4.18673 15.6792 
15.8311 4.29388 15.9446 
12.9595 7.00003 15.7477 
15.7713 7.04965 15.8451 
18.799 4.37663 12.8082 
18.3097 7.06187 12.8271 
19.9473 5.89649 14.1819 
17.1455 5.65955 14.2551 
18.6015 4.34351 15.6239 
18.5105 7.17401 15.6459 
21.579 4.31722 12.8323 
24.3336 4.27996 12.8715 
21.5117 7.22863 13.0077 
24.31 7.25208 12.9088 
22.89 5.70241 14.2951 
21.5918 4.43517 15.612 
21.4594 7.14996 15.7585 
24.4802 7.03077 15.705 
24.4604 4.32326 15.7808 
28.603 5.73817 14.2615 
27.136 4.21011 12.923 
27.2666 7.12407 12.9117 
25.7671 5.59944 14.3548 
27.1288 4.27445 15.7771 
27.3016 7.09434 15.7648 
1.58709 10.2674 12.9559 
3.02385 8.50451 14.2109 
1.53834 9.86641 15.8355 
3.06776 11.4445 14.3854 
4.43168 10.0101 12.8988 
7.0422 10.0559 12.8808 
5.84291 11.5398 14.2803 
4.29344 10.2109 15.8799 
7.10229 10.2132 15.991 
5.77434 8.73726 14.5595 
10.1893 10.0618 13.0051 
8.60212 8.56593 14.2557 
8.5397 11.4537 14.3178 
11.5106 11.5102 14.3499 
10.3085 9.90036 15.7852 
11.7502 8.5201 14.3972 
12.9248 9.99056 12.8316 
15.7586 10.069 12.9051 
14.2656 8.64329 14.2154 
13.1373 10.0546 15.8636 
15.723 9.96234 15.7238 
14.3041 11.4411 14.4273 
18.5352 10.0102 13.064 
17.2026 8.5838 14.2744 
18.6703 9.94898 15.8566 
17.1354 11.4223 14.3898 
20.0916 11.5025 14.4425 
20.0751 8.50592 14.3602 
21.3665 9.87485 13.0239 
24.2834 9.9382 12.8994 
22.7317 11.4735 14.2974 
21.3214 10.0181 15.7028 
24.2487 10.0299 15.6323 
23.086 8.47084 14.4184 
28.6816 8.59658 14.2197 
27.4244 9.98367 12.7368 
25.9146 8.72365 14.3296 
28.6739 11.4378 14.2132 
27.315 10.1225 15.7944 
25.7647 11.4353 14.3753 
1.5794 13.051 13.067 
1.58281 15.8648 12.9539 
1.63455 12.8312 15.91 
1.43697 15.774 15.9539 
0.0371129 14.2391 14.6192 
2.90487 14.434 14.5533 
4.39539 12.859 12.9599 
7.22747 12.9823 12.9661 
4.47308 15.7863 12.8917 
7.12601 15.7897 13.1343 
4.42145 12.9037 15.864 
7.36835 12.9661 15.7853 
4.28745 15.8572 15.8353 
7.31248 15.9559 15.8191 
5.81525 14.4965 14.4234 
10.0512 12.8752 12.9014 
10.0621 15.7132 12.9536 
11.4399 14.2649 14.3332 
9.999 12.7859 15.8002 
10.0542 15.7813 15.9605 
8.71421 14.3536 14.3629 
14.2342 14.2576 14.2845 
13.0304 12.7572 12.8011 
15.8101 13.0397 12.8673 
12.7735 15.7084 13.1029 
15.9112 15.7132 12.8258 
12.9987 12.8348 15.7438 
15.8701 12.939 15.7786 
12.8792 15.8146 15.7072 
15.5963 15.6454 15.3507 
18.6319 12.9113 12.885 
18.6523 15.6051 12.9743 
18.6674 12.9343 15.9625 
18.4463 15.9181 15.7869 
17.2816 14.2998 14.4018 
20.0016 14.2973 14.4159 
21.4847 12.9611 12.8599 
24.3548 12.7751 12.9854 
21.4818 15.6468 12.8966 
22.9314 14.2533 14.3115 
24.4909 15.8192 12.8945 
21.634 12.8507 15.8515 
24.3845 12.7461 15.8802 
21.5746 15.7476 15.5405 
24.3045 15.6827 15.7843 
27.3176 12.8392 13.1221 
27.4286 15.7839 12.7921 
25.8394 14.3227 14.2038 
27.2794 12.9333 15.9306 
27.34 15.6534 15.8079 
1.423 18.6327 12.9951 
2.9338 17.2498 14.3067 
1.56817 18.5593 15.8618 
0.0722988 17.1304 14.4054 
4.07649 18.8465 15.8134 
2.89594 20.3005 14.4914 
0.0145827 20.0917 14.4502 
4.32357 18.8578 13.1596 
7.37037 18.6278 12.9118 
7.13655 18.7216 15.8344 
5.82578 17.3651 14.3616 
5.89967 20.2142 14.3892 
10.1078 18.6559 12.8739 
11.4706 20.104 14.3194 
8.56649 20.1183 14.322 
8.75514 17.3269 14.3748 
9.98942 18.6739 15.7555 
11.5063 17.3676 14.5339 
13.0321 18.5264 13.0583 
15.9987 18.5799 12.8055 
14.2761 19.9799 14.3415 
12.9135 18.7278 15.7769 
15.8626 18.5837 15.6574 
14.3115 17.2423 14.4193 
20.1487 20.22 14.2544 
18.5168 18.6757 12.9944 
18.8286 18.8905 15.5919 
17.2301 17.1763 14.3911 
17.2918 20.1362 14.3733 
20.1409 17.1876 14.3565 
21.5958 18.5516 12.8448 
23.103 17.1419 14.3469 
21.4879 18.5506 15.7967 
24.5083 18.3707 16.0181 
23.2596 20.0031 14.464 
24.6271 18.5954 12.8507 
27.2013 18.5488 13.061 
27.2246 18.624 15.9791 
25.9013 20.0159 14.4882 
25.7413 17.14 14.4944 
1.23337 21.604 13.1697 
1.54324 24.4889 12.9769 
1.27605 21.4192 15.9281 
1.42168 24.36 15.8685 
0.171881 23.0174 14.5339 
2.80326 22.9016 14.4351 
4.25883 21.6302 13.1354 
7.29821 21.6478 12.7981 
4.23058 24.4421 12.8636 
7.18945 24.3348 12.9361 
4.18425 21.634 15.872 
7.18693 21.4364 15.8862 
4.38598 24.4038 15.7268 
7.31053 24.4208 15.6207 
5.81004 22.8321 14.4642 
10.1176 21.6959 12.905 
10.2823 24.431 12.9032 
8.59417 22.9829 14.252 
10.0592 21.6942 15.8 
11.5961 22.9902 14.4169 
12.9 21.3969 12.9176 
15.8847 21.3727 12.8169 
13.0987 24.4876 13.0639 
15.7884 24.5445 12.9302 
14.3014 22.9011 14.2621 
12.7639 21.5677 15.7389 
15.7707 21.5138 15.6203 
15.8479 24.3731 15.6628 
18.7218 24.34 12.8787 
18.7426 21.4366 12.8927 
17.2037 22.9589 14.2464 
18.7951 21.6428 15.7325 
18.5718 24.4086 15.7489 
20.0901 23.0286 14.4787 
24.5683 24.2795 13.1916 
21.6912 21.4452 13.0577 
24.581 21.457 13.1224 
21.5653 24.2439 12.8601 
22.9471 22.8918 14.3409 
21.6268 21.4384 15.8314 
24.4395 21.6485 15.7155 
21.8371 24.3665 16.0758 
24.5185 24.2674 15.8539 
27.4845 24.1999 13.299 
27.4217 21.4851 13.0251 
27.4726 21.505 15.9637 
27.2815 24.4703 15.9132 
26.1545 22.9154 14.5089 
4.07709 27.3734 12.8933 
1.35431 27.3252 12.7663 
0.167048 28.6806 14.2046 
1.24513 27.3905 15.68 
4.01672 27.2319 15.9156 
2.67847 25.983 14.4487 
0.0962891 25.6657 14.4694 
6.98875 27.3313 12.9046 
7.14565 27.1983 15.7099 
5.65124 25.8893 14.4044 
11.6251 25.9285 14.2576 
10.1568 27.2361 12.8035 
8.55943 28.6501 14.3292 
8.57601 25.8615 14.1737 
9.94036 24.6636 15.6292 
9.97554 27.263 15.7604 
12.9646 27.4603 12.7822 
15.7163 27.3066 12.9075 
14.3665 25.9747 14.3111 
12.9262 24.6492 15.6529 
12.8053 27.446 15.5265 
15.6885 27.4249 15.676 
18.5945 27.2359 12.8082 
17.2278 25.9241 14.2636 
20.071 28.7038 14.1926 
18.693 27.1936 15.508 
20.1207 25.7432 14.3567 
24.4538 27.1163 12.9803 
21.5163 27.1022 12.9298 
21.6226 27.3363 15.7358 
24.3655 27.0587 15.7379 
23.061 25.5504 14.503 
27.2082 27.2013 12.9963 
27.4054 27.2297 15.713 
25.9302 25.8735 14.5132 
25.9057 28.5619 14.472 
1.22453 1.48332 18.6397 
2.74669 3.01719 17.1505 
2.76401 0.121091 17.4069 
2.73958 2.60577 19.8746 
4.3811 1.42511 18.5394 
7.02207 1.5411 18.6171 
5.52606 2.81197 17.1406 
5.71341 0.0189302 17.0099 
5.51001 2.74137 20.1341 
9.86448 1.5061 18.5786 
8.61335 2.84119 17.1322 
11.4062 2.79118 17.1507 
8.55966 2.78254 20.0145 
11.4326 2.90484 19.9498 
8.52196 0.0339469 19.9937 
11.4029 0.0561705 20.1045 
12.7976 1.57662 18.6392 
15.7226 1.39441 18.5035 
14.2243 2.87789 17.1758 
14.3969 3.08743 20.0915 
14.3493 0.0269378 20.0775 
18.6971 1.4509 18.5055 
17.3234 2.96641 17.0726 
20.3257 2.95147 17.0987 
20.2487 0.0741159 17.0351 
17.1678 2.82622 20.1499 
20.3589 2.75911 20.1123 
17.4016 0.198411 19.9993 
20.0967 0.170726 20.0288 
21.5086 1.37333 18.4962 
22.9655 3.04405 17.2147 
24.4322 1.32234 18.73 
23.0886 0.0541639 17.3141 
23.0963 2.80741 20.2219 
22.886 0.0969033 20.3966 
28.566 2.94733 17.3283 
28.6745 0.0111004 16.9788 
27.1288 1.32255 18.5569 
25.7423 2.82455 17.1263 
28.5886 2.93775 20.0958 
28.5571 0.083122 20.0653 
25.8245 2.88802 20.3299 
1.43988 4.23276 18.6109 
1.5777 6.80009 18.5871 
2.78847 5.88599 17.0311 
2.86254 5.58064 20.0355 
4.18499 4.11629 18.7042 