ITEM: TIMESTEP
11071
ITEM: NUMBER OF ATOMS
2001
ITEM: BOX BOUNDS pp pp pp
0.0000000000000000e+00 2.8712000000000000e+01
0.0000000000000000e+00 2.8712000000000000e+01
0.0000000000000000e+00 2.8712000000000000e+01
ITEM: ATOMS x y z c_cna 
1.43409 1.43531 1.43452 3 
2.86975 2.8708 2.86981 3 
2.87011 0.000545594 2.86919 3 
4.30535 1.43539 1.43455 3 
7.17661 1.43538 1.43454 3 
5.74093 2.87086 2.86981 3 
5.74067 0.000598551 2.86919 3 
10.0482 1.43513 1.43456 3 
8.61239 2.87081 2.86987 3 
11.484 2.8706 2.87002 3 
8.61168 0.000652919 2.86907 3 
11.4834 0.000248242 2.86929 3 
12.9197 1.43476 1.43456 3 
15.7907 1.43443 1.43458 3 
14.3553 2.87038 2.87017 3 
18.6614 1.43425 1.43459 3 
17.2261 2.87021 2.87027 3 
20.0967 2.87016 2.87027 3 
21.5321 1.43432 1.43459 3 
24.4031 1.4346 1.43458 3 
22.9676 2.87023 2.87019 3 
28.7103 2.87066 2.86986 3 
27.2746 1.43497 1.43453 3 
25.8388 2.87043 2.87004 3 
28.7111 0.000530933 2.86907 3 
25.8394 6.94486e-05 2.86927 3 
1.43378 4.30519 1.43529 3 
1.43394 7.17509 1.4361 3 
2.86956 5.74052 2.87065 3 
2.86965 5.73967 0.000789793 3 
4.30528 4.30525 1.43531 3 
7.17681 4.30529 1.43531 3 
4.30525 7.17507 1.43607 3 
7.17657 7.17511 1.43611 3 
5.74098 5.74053 2.87068 3 
5.74085 5.73969 0.000811661 3 
10.0484 4.30527 1.4353 3 
10.0482 7.17534 1.43607 3 
8.61262 5.74062 2.87076 3 
11.4842 5.74074 2.87088 3 
11.484 5.73989 0.000574983 3 
8.61237 5.73975 0.000753227 3 
12.9198 4.30521 1.43528 3 
15.7908 4.30514 1.43525 3 
12.9198 7.17564 1.436 3 
15.7908 7.17587 1.43596 3 
14.3554 5.74083 2.87101 3 
14.3553 5.74 0.000367445 3 
18.6615 4.30509 1.43526 3 
18.6615 7.17595 1.43596 3 
17.2262 5.7409 2.87111 3 
20.0967 5.74085 2.87113 3 
20.0968 5.74002 0.000271946 3 
17.2262 5.74003 0.000266841 3 
21.5321 4.30505 1.43528 3 
24.403 4.30508 1.43527 3 
21.5321 7.17585 1.43597 3 
22.9675 5.74075 2.87105 3 
24.4031 7.1756 1.43601 3 
22.9676 5.73992 0.000372737 3 
28.71 5.74056 2.87074 3 
28.7102 5.73968 0.000705449 3 
27.2743 4.30512 1.43529 3 
27.2744 7.17531 1.43604 3 
25.8385 5.74064 2.8709 3 
25.8387 5.73977 0.000532199 3 
1.43431 10.0457 1.43638 3 
2.86965 8.61054 2.87112 3 
2.86988 11.4813 2.87109 3 
2.87013 11.481 0.00162976 3 
2.8699 8.60987 0.00146402 3 
4.30522 10.0456 1.43637 3 
7.17618 10.0456 1.43644 3 
5.74082 8.61052 2.87115 3 
5.74065 11.4813 2.87111 3 
5.74038 11.481 0.00166063 3 
5.74054 8.60987 0.00150377 3 
10.0477 10.0458 1.43642 3 
8.6123 8.6107 2.8712 3 
11.484 8.61111 2.87128 3 
8.61183 11.4814 2.87108 3 
11.4835 11.4819 2.87116 3 
8.61113 11.4808 0.00185733 3 
8.61167 8.6098 0.00160471 3 
11.4835 8.61019 0.00135154 3 
11.4828 11.4811 0.00167832 3 
12.9195 10.0465 1.43626 3 
15.7907 10.047 1.43618 3 
14.3553 8.61156 2.8714 3 
14.3551 11.4827 2.87136 3 
14.3551 8.61068 0.00106016 3 
14.3547 11.4819 0.00115428 3 
18.6615 10.0472 1.43617 3 
17.2262 8.61184 2.8715 3 
20.0968 8.61182 2.87151 3 
17.2261 11.4831 2.87147 3 
20.0968 11.4832 2.87149 3 
20.0969 8.61097 0.000895734 3 
20.097 11.4825 0.000872062 3 
17.2261 8.61097 0.000908115 3 
17.226 11.4825 0.000892173 3 
21.5323 10.047 1.43618 3 
24.4034 10.0465 1.43625 3 
22.9675 8.61156 2.87145 3 
22.9678 11.4827 2.87138 3 
22.9681 11.482 0.00111412 3 
22.9678 8.6107 0.00101694 3 
28.7108 11.4815 2.87108 3 
28.7109 8.60981 0.00153339 3 
28.7103 8.61071 2.87118 3 
27.2749 10.0459 1.43638 3 
25.8387 8.61112 2.87132 3 
25.8392 11.482 2.87121 3 
25.8399 11.4813 0.00160931 3 
28.7114 11.481 0.00177637 3 
25.8392 8.61021 0.0013028 3 
1.43467 12.917 1.43626 3 
1.4349 15.7889 1.43589 3 
2.87012 14.3528 2.87078 3 
2.87027 14.3529 0.00143084 3 
4.30528 12.9169 1.43627 3 
7.17593 12.9169 1.43629 3 
4.30535 15.7888 1.43592 3 
7.17581 15.7888 1.43593 3 
5.74052 14.3528 2.87078 3 
5.74035 14.3528 0.00146715 3 
10.0472 12.9171 1.43626 3 
10.047 15.7889 1.43588 3 
8.6114 14.3528 2.87067 3 
11.483 14.3532 2.87082 3 
11.4824 14.3529 0.00137791 3 
8.61093 14.3528 0.00163129 3 
12.919 12.9177 1.43614 3 
15.7905 12.9185 1.43603 3 
12.9186 15.7893 1.43581 3 
15.7901 15.7899 1.43576 3 
14.3548 14.354 2.8712 3 
14.3542 14.3535 0.00079897 3 
18.6615 12.9188 1.43598 3 
18.6614 15.7903 1.43574 3 
17.226 14.3547 2.87146 3 
20.0969 14.3547 2.87145 3 
20.0971 14.3542 0.000317534 3 
17.2258 14.3542 0.000343838 3 
21.5324 12.9186 1.43602 3 
24.4038 12.9178 1.43614 3 
21.5326 15.79 1.43573 3 
24.4041 15.7895 1.43577 3 
22.9681 14.3541 2.87119 3 
22.9686 14.3536 0.000745362 3 
28.7117 14.3529 0.00156171 3 
28.7113 14.3529 2.87067 3 
27.2754 12.9173 1.43623 3 
27.2757 15.7891 1.43586 3 
25.8397 14.3533 2.87081 3 
25.8403 14.3531 0.00131088 3 
1.43503 18.661 1.43543 3 
2.87032 17.2248 2.87031 3 
2.87042 20.097 2.86982 3 
2.87036 17.225 0.00106312 3 
2.87037 20.0972 0.000595055 3 
4.30541 18.661 1.43547 3 
7.17578 18.661 1.43548 3 
5.74046 17.2247 2.87033 3 
5.74045 20.097 2.86986 3 
5.74047 20.0972 0.000620834 3 
5.74038 17.225 0.00108163 3 
10.0469 18.661 1.43549 3 
8.61112 17.2247 2.87023 3 
11.4826 17.2249 2.87044 3 
8.61096 20.097 2.86974 3 
11.4823 20.097 2.87001 3 
11.4825 20.0971 0.000485229 3 
11.4824 17.2251 0.00092483 3 
8.61105 20.0972 0.00074352 3 
8.61094 17.225 0.00123347 3 
12.9184 18.6611 1.43546 3 
15.7899 18.6611 1.43545 3 
14.3543 17.2255 2.87099 3 
14.3539 20.097 2.87061 3 
14.354 17.2252 0.000266339 3 
18.6613 18.6612 1.43544 3 
17.2257 17.2261 2.87147 3 
20.097 17.2261 2.87147 3 
17.2255 20.097 2.87111 3 
20.0971 20.097 2.87111 3 
21.5327 18.6611 1.43543 3 
24.4042 18.6611 1.4354 3 
22.9684 17.2255 2.87097 3 
22.9687 20.0971 2.87057 3 
22.9687 17.2252 0.000211446 3 
28.7117 17.2249 2.87018 3 
28.7118 17.2251 0.00114085 3 
28.7119 20.097 2.86968 3 
27.2759 18.6611 1.43543 3 
25.8401 17.2251 2.8704 3 
25.8404 20.097 2.86992 3 
25.8403 17.2252 0.000856682 3 
25.8402 20.0972 0.000427207 3 
28.7117 20.0973 0.000684454 3 
1.43503 21.5332 1.43497 3 
1.43489 24.4052 1.43452 3 
2.87045 22.9693 2.86938 3 
2.87026 22.9693 9.6925e-05 3 
4.30545 21.5332 1.43499 3 
7.17583 21.5332 1.43501 3 
5.74046 22.9693 2.86941 3 
4.30545 24.4052 1.43456 3 
5.74059 22.9693 0.00011437 3 
7.17597 24.4052 1.43454 3 
10.0469 21.5331 1.43504 3 
8.61093 22.9694 2.86926 3 
11.4823 22.9692 2.86947 3 
10.0471 24.4051 1.43456 3 
8.61133 22.9693 0.000194839 3 
11.4828 22.9689 2.35866e-05 3 
12.9185 21.5328 1.43506 3 
15.79 21.5323 1.43509 3 
15.7902 24.4037 1.43472 3 
14.354 22.9688 2.87001 3 
12.9187 24.4045 1.4346 3 
18.6612 21.532 1.4351 3 
18.6612 24.4034 1.43475 3 
17.2256 22.9681 2.87042 3 
20.097 22.9681 2.87042 3 
21.5326 21.5323 1.43506 3 
24.4042 21.5328 1.435 3 
21.5323 24.4037 1.43471 3 
22.9686 22.9687 2.86995 3 
24.4039 24.4044 1.43458 3 
28.7119 22.9693 2.8692 3 
27.2758 21.5331 1.43497 3 
27.2756 24.405 1.43453 3 
25.8404 22.9692 2.86938 3 
25.8399 22.9689 6.84797e-06 3 
28.7115 22.9692 0.000188786 3 
1.43457 27.2767 1.43429 3 
2.87036 25.8413 2.86911 3 
4.30543 27.2767 1.43435 3 
7.17625 27.2767 1.43431 3 
5.74051 25.8413 2.86911 3 
10.0476 27.2765 1.43429 3 
8.61113 25.8414 2.86893 3 
11.4826 25.8412 2.86906 3 
14.3549 28.7117 2.86954 3 
12.9193 27.2759 1.43439 3 
15.7904 27.2753 1.43444 3 
14.3545 25.8404 2.86952 3 
17.2259 28.7113 2.86967 3 
20.0968 28.7113 2.86967 3 
18.6613 27.275 1.43447 3 
17.2258 25.8398 2.86976 3 
20.0968 25.8397 2.86975 3 
22.9678 28.7115 2.86952 3 
21.5322 27.2752 1.43444 3 
22.9682 25.8403 2.86947 3 
24.4035 27.2757 1.43438 3 
28.7117 25.8413 2.86888 3 
27.2752 27.2764 1.4343 3 
25.8401 25.8411 2.869 3 
1.4348 1.43633 4.30433 3 
1.43548 1.43693 7.17513 3 
2.87004 2.87145 5.74019 3 
0.000718745 0.00206363 5.73853 3 
2.8706 0.00132605 5.73936 3 
7.17595 1.43642 4.30434 3 
4.30537 1.4362 4.30453 3 
4.30538 1.43657 7.17544 3 
7.17527 1.43699 7.17515 3 
5.74064 2.8715 5.7402 3 
5.74019 0.00137259 5.73937 3 
10.0475 1.43629 4.30445 3 
10.0462 1.43731 7.17478 3 
8.61169 2.87161 5.74014 3 
11.4835 2.87134 5.74053 3 
11.4821 0.00189323 5.73884 3 
8.61009 0.00219349 5.73858 3 
12.9192 1.43586 4.30481 3 
15.7905 1.43549 4.30509 3 
12.9185 1.43663 7.17547 3 
15.7902 1.43606 7.17613 3 
14.355 2.871 5.74102 3 
14.3543 0.00113712 5.73951 3 
18.6614 1.43531 4.30521 3 
18.6614 1.43586 7.17638 3 
17.226 2.87082 5.74133 3 
20.0968 2.87077 5.74132 3 
17.2258 0.000703797 5.73987 3 
20.0969 0.000643754 5.73989 3 
21.5323 1.43536 4.30511 3 
24.4036 1.4357 4.30481 3 
21.5325 1.43598 7.17615 3 
24.4043 1.43651 7.17546 3 
22.9678 2.87089 5.74104 3 
22.9684 0.00103917 5.73948 3 
28.711 2.87146 5.74014 3 
27.2753 1.43613 4.30443 3 
27.2766 1.43716 7.17475 3 
25.8393 2.87121 5.74054 3 
25.8406 0.00177156 5.73878 3 
1.43402 4.306 4.30534 3 
1.43389 7.17574 4.30603 3 
1.43442 4.30626 7.17606 3 
1.4343 7.17578 7.17645 3 
2.8697 5.74095 5.74091 3 
7.17665 7.17575 4.30603 3 
7.17659 4.30608 4.30536 3 
4.30529 4.30601 4.30532 3 
4.30524 7.17571 4.30599 3 
4.30529 4.30626 7.17606 3 
4.30525 7.17586 7.17644 3 
7.17623 4.30632 7.17607 3 
5.74086 5.74098 5.74091 3 
7.17625 7.17581 7.17642 3 
10.0482 4.30602 4.3056 3 
10.0483 7.17599 4.30625 3 
10.0477 4.30631 7.17631 3 
8.61231 5.74103 5.74107 3 
10.0478 7.17593 7.17669 3 
11.484 5.74113 5.74147 3 
12.9197 4.30594 4.3059 3 
15.7908 4.30586 4.30617 3 
12.9198 7.1763 4.30655 3 
15.7908 7.17653 4.30683 3 
12.9194 4.30614 7.17691 3 
15.7906 4.30602 7.17746 3 
12.9195 7.17632 7.17733 3 
14.3553 5.74123 5.74193 3 
15.7907 7.17664 7.17792 3 
18.6614 4.3058 4.30628 3 
18.6615 7.1766 4.30696 3 
18.6614 4.30595 7.17767 3 
17.2261 5.74126 5.74225 3 
18.6614 7.17671 7.17816 3 
20.0968 5.74122 5.74227 3 
21.5321 4.30577 4.30617 3 
24.4031 4.30581 4.30593 3 
21.5321 7.17648 4.30687 3 
24.403 7.17622 4.30661 3 
21.5322 4.30593 7.17749 3 
21.5321 7.17657 7.17798 3 
22.9675 5.74112 5.74199 3 
24.4032 7.17625 7.17741 3 
24.4034 4.30602 7.17694 3 
27.2745 4.30591 4.30558 3 
27.2744 7.17594 4.30626 3 
28.7103 5.74097 5.74109 3 
27.275 4.30619 7.17632 3 
25.8388 5.74102 5.74153 3 
27.2748 7.17589 7.17676 3 
1.43429 10.046 4.30606 3 
1.43469 10.0461 7.17649 3 
2.86974 8.61088 5.74125 3 
2.87005 11.4814 5.74112 3 
4.30525 10.046 4.30612 3 
7.17625 10.0459 4.30607 3 
4.30527 10.0462 7.17659 3 
5.74076 8.61088 5.74125 3 
7.17586 10.0461 7.17647 3 
5.7405 11.4814 5.74111 3 
10.0478 10.0462 4.30619 3 
8.61209 8.61096 5.74133 3 
10.0471 10.0461 7.17655 3 
11.4838 8.61141 5.74174 3 
8.61123 11.4812 5.74082 3 
11.483 11.4817 5.74115 3 
12.9196 10.0469 4.30656 3 
15.7908 10.0475 4.3069 3 
12.9191 10.047 7.17736 3 
14.3553 8.61197 5.74232 3 
15.7907 10.0478 7.17822 3 
14.355 11.4826 5.74198 3 
18.6615 10.0477 4.30705 3 
17.2262 8.61227 5.74267 3 
18.6615 10.0481 7.17856 3 
20.0968 8.61227 5.7427 3 
17.2261 11.4833 5.7425 3 
20.0968 11.4833 5.74255 3 
21.5321 10.0475 4.30696 3 
24.4032 10.0469 4.30663 3 
21.5322 10.0478 7.17828 3 
22.9676 8.61194 5.74237 3 
22.9679 11.4827 5.74205 3 
24.4037 10.047 7.17744 3 
27.2748 10.0463 4.30621 3 
28.7114 11.4813 5.74086 3 
28.7105 8.61098 5.74136 3 
25.8389 8.61138 5.7418 3 
27.2755 10.0462 7.17662 3 
25.8398 11.4817 5.74121 3 
1.43483 12.917 4.30569 3 
1.43529 15.7887 4.30516 3 
1.43544 12.9169 7.17603 3 
1.43607 15.7886 7.17542 3 
2.87039 14.3528 5.7407 3 
0.000367738 14.3525 5.74005 3 
4.30536 15.7887 4.30546 3 
4.30529 12.917 4.3059 3 
7.17581 12.9169 4.30569 3 
7.17548 15.7885 4.30518 3 
4.30529 12.9171 7.17637 3 
7.17519 12.9168 7.17602 3 
4.30536 15.7888 7.17597 3 
5.74027 14.3527 5.7407 3 
7.17471 15.7884 7.17544 3 
10.0471 12.917 4.30563 3 
10.0464 15.7885 4.30505 3 
10.0455 12.9161 7.17529 3 
8.61037 14.3523 5.74006 3 
10.044 15.7874 7.17399 3 
11.4818 14.3524 5.74016 3 
12.919 12.9178 4.30615 3 
15.7906 12.9187 4.30675 3 
12.9183 15.7891 4.3058 3 
15.7903 15.7903 4.30685 3 
12.9178 12.9168 7.17604 3 
15.7903 12.9184 7.17751 3 
12.9159 15.7876 7.17445 3 
14.3543 14.3536 5.74143 3 
15.7896 15.7898 7.17702 3 
18.6615 12.9191 4.30698 3 
18.6614 15.7908 4.30729 3 
18.6615 12.919 7.1781 3 
17.226 14.3548 5.74245 3 
18.6614 15.7911 7.1783 3 
20.0969 14.3548 5.74249 3 
21.5323 12.9187 4.3068 3 
21.5326 15.7903 4.30687 3 
24.4045 15.7893 4.30577 3 
24.4038 12.9179 4.30622 3 
21.5326 12.9184 7.17759 3 
24.4051 12.9169 7.1761 3 
21.5333 15.7898 7.17706 3 
22.9685 14.3537 5.74149 3 
24.407 15.7877 7.17445 3 
27.2756 12.9171 4.30566 3 
27.2763 15.7887 4.30501 3 
27.2772 12.9163 7.17533 3 
25.841 14.3525 5.74016 3 
27.2788 15.7877 7.17397 3 
1.43565 18.6608 4.3046 3 
1.43652 18.6608 7.1748 3 
2.87069 17.2247 5.74018 3 
2.87089 20.097 5.73967 3 
0.00107893 17.2245 5.7393 3 
0.00160436 20.097 5.73861 3 
4.30544 18.6608 4.30496 3 
7.17521 18.6607 4.30464 3 
4.30545 18.6609 7.17552 3 
5.74016 17.2246 5.74021 3 
7.17438 18.6607 7.17485 3 
5.74005 20.097 5.73971 3 
10.0459 18.6607 4.30448 3 
8.60976 17.2243 5.73935 3 
10.043 18.6602 7.17295 3 
11.4808 17.2243 5.73937 3 
8.60925 20.0969 5.73866 3 
11.48 20.0971 5.73857 3 
12.9176 18.6611 4.30536 3 
15.7895 18.6617 4.30669 3 
12.9143 18.6605 7.17333 3 
14.3533 17.2253 5.74111 3 
15.7878 18.6624 7.17676 3 
14.3522 20.0978 5.74045 3 
18.6613 18.6623 4.30741 3 
17.2257 17.2269 5.74303 3 
18.6614 18.6644 7.17938 3 
20.0971 17.227 5.74305 3 
17.2246 20.0983 5.7425 3 
20.098 20.0983 5.7425 3 
21.5332 18.6618 4.3067 3 
24.405 18.6611 4.30532 3 
21.535 18.6625 7.17676 3 
22.9695 17.2254 5.74113 3 
24.4085 18.6607 7.17325 3 
22.9705 20.0979 5.7404 3 
27.2769 18.6608 4.30442 3 
25.842 17.2244 5.73931 3 
27.2798 18.6604 7.17288 3 
25.8428 20.0973 5.73848 3 
1.43583 21.5332 4.30409 3 
1.43584 24.4056 4.3037 3 
1.43687 21.5335 7.17421 3 
2.87097 22.9695 5.73924 3 
1.43706 24.4064 7.1738 3 
0.0019245 22.97 5.73796 3 
4.30546 21.5332 4.30452 3 
7.17506 21.5332 4.30412 3 
7.17504 24.4057 4.30374 3 
4.30545 24.4055 4.30416 3 
4.30549 21.5334 7.17508 3 
7.17408 21.5334 7.17425 3 
4.30546 24.4058 7.17477 3 
5.73997 22.9695 5.73927 3 
7.1739 24.4064 7.17386 3 
10.0456 21.5333 4.30389 3 
10.0455 24.4061 4.30335 3 
10.0422 21.534 7.17193 3 
8.60895 22.9699 5.73806 3 
10.0417 24.4082 7.17118 3 
11.4794 22.9707 5.73764 3 
15.7897 24.4049 4.30493 3 
12.9172 21.5335 4.30471 3 
15.7891 21.5333 4.30594 3 
12.9173 24.406 4.30393 3 
12.9129 21.5353 7.17185 3 
15.7863 21.5361 7.17504 3 
14.3519 22.9709 5.7391 3 
15.7891 24.4073 7.17376 3 
12.9128 24.4104 7.17039 3 
18.6613 24.4044 4.30525 3 
18.6613 21.5328 4.30648 3 
18.6613 21.5339 7.17739 3 
17.2252 22.9693 5.74083 3 
18.6613 24.4064 7.17446 3 
20.0974 22.9693 5.74083 3 
21.5335 21.5333 4.30593 3 
24.4055 21.5335 4.30461 3 
21.5329 24.4048 4.3049 3 
24.4054 24.4059 4.3038 3 
21.5364 21.5362 7.17499 3 
21.5336 24.4074 7.17374 3 
22.9708 22.971 5.73903 3 
24.4099 21.5355 7.17174 3 
24.41 24.4104 7.17028 3 
27.2772 21.5333 4.30379 3 
27.2773 24.406 4.30324 3 
27.2807 21.5341 7.17182 3 
25.8433 22.9708 5.7375 3 
27.2811 24.4083 7.17104 3 
1.43554 27.2776 4.3037 3 
1.43671 27.2786 7.17404 3 
2.87092 25.8419 5.73905 3 
0.00178886 25.8427 5.73775 3 
4.30544 27.2773 4.30411 3 
7.17529 27.2777 4.30372 3 
4.30542 27.2778 7.17485 3 
5.73997 25.8419 5.7391 3 
7.17417 27.2786 7.17408 3 
10.0462 27.278 4.30339 3 
8.60908 25.8428 5.73784 3 
10.043 27.2808 7.17196 3 
11.4799 25.8438 5.73725 3 
12.9184 27.2773 4.304 3 
15.7901 27.2765 4.30448 3 
12.9166 27.2798 7.17285 3 
14.3535 25.8424 5.73873 3 
15.7896 27.2786 7.17396 3 
18.6613 27.2762 4.30462 3 
17.2256 25.8415 5.73942 3 
18.6613 27.2783 7.1743 3 
20.0971 25.8415 5.73942 3 
21.5325 27.2765 4.30445 3 
24.4043 27.2772 4.30394 3 
21.5331 27.2786 7.17393 3 
22.9692 25.8423 5.73868 3 
24.4062 27.2798 7.17276 3 
27.2766 27.2779 4.30333 3 
25.8429 25.8437 5.73712 3 
27.2799 27.2807 7.17185 3 
2.87023 2.87152 8.61149 3 
1.43574 1.43683 10.047 3 
2.8703 2.8712 11.4834 3 
2.8709 0.0012171 11.4831 3 
0.00187577 0.00243083 11.4827 3 
2.87087 0.00153448 8.61082 3 
0.00174315 0.00275093 8.60989 3 
5.74043 2.87156 8.61149 3 
4.30535 1.43644 10.0472 3 
7.17501 1.43689 10.047 3 
5.74036 2.87122 11.4834 3 
5.73992 0.00122829 11.483 3 
5.73994 0.00156596 8.61085 3 
8.61113 2.87173 8.61141 3 
11.4827 2.87155 8.61162 3 
11.48 0.00337705 8.60897 3 
10.0456 1.43726 10.0467 3 
8.61093 2.87137 11.4834 3 
11.4824 2.8711 11.4835 3 
11.4795 0.00282906 11.4819 3 
8.60895 0.00246298 11.4827 3 
8.60908 0.00282265 8.60994 3 
14.3546 2.87099 8.61242 3 
14.3535 0.00181759 8.61031 3 
12.9174 1.43662 10.0468 3 
15.7898 1.43553 10.0479 3 
14.3541 2.87049 11.484 3 
14.3519 0.00132972 11.4817 3 
17.2259 2.8707 8.61295 3 
20.0969 2.87066 8.61298 3 
18.6614 1.43518 10.0483 3 
17.2257 2.87 11.4846 3 
20.097 2.86996 11.4847 3 
17.2256 0.00106638 8.61118 3 
20.0971 0.00104135 8.61118 3 
22.9682 2.87091 8.61243 3 
22.9692 0.00174227 8.6103 3 
22.9708 0.00129143 11.4817 3 
21.5329 1.43547 10.0479 3 
24.4053 1.43656 10.0468 3 
22.9686 2.87039 11.484 3 
28.7116 2.87164 8.61139 3 
25.84 2.87144 8.61161 3 
25.8433 0.00284534 11.4819 3 
28.7118 2.87129 11.4834 3 
27.2772 1.43718 10.0467 3 
25.8404 2.87103 11.4835 3 
25.8428 0.00333107 8.60892 3 
2.86989 5.7409 8.61185 3 
1.43468 4.30605 10.0475 3 
1.43476 7.17544 10.0475 3 
2.87004 5.74054 11.4834 3 
5.74064 5.74091 8.61182 3 
4.30525 7.17567 10.0476 3 
4.30528 4.30609 10.0475 3 
7.17591 4.30611 10.0475 3 
7.17574 7.17545 10.0475 3 
5.74045 5.74057 11.4834 3 
8.6118 5.74089 8.61195 3 
11.4835 5.74099 8.61242 3 
10.0472 4.30607 10.0477 3 
10.047 7.17539 10.0476 3 
8.61136 5.74046 11.4834 3 
11.483 5.74059 11.4838 3 
14.3551 5.74114 8.61317 3 
15.7904 4.30577 10.049 3 
12.9189 4.30594 10.0483 3 
12.919 7.17594 10.0483 3 
15.7905 7.17651 10.0492 3 
14.3547 5.74095 11.4846 3 
17.226 5.74122 8.61368 3 
20.0968 5.74117 8.61371 3 
18.6614 4.30568 10.0493 3 
18.6614 7.17668 10.0496 3 
17.2259 5.74116 11.4852 3 
20.0968 5.74112 11.4853 3 
22.9677 5.74104 8.61324 3 
21.5324 4.30569 10.0491 3 
21.5323 7.17644 10.0493 3 
22.968 5.74087 11.4846 3 
24.4037 7.17587 10.0484 3 
24.4038 4.30582 10.0483 3 
28.7112 5.74041 11.4834 3 
28.7108 5.74081 8.61197 3 
25.8392 5.74088 8.61247 3 
27.2755 4.30597 10.0478 3 
27.2756 7.17536 10.0476 3 
25.8397 5.74051 11.4839 3 
2.87001 8.61082 8.61195 3 
2.87032 11.4816 8.61201 3 
1.43538 10.0458 10.0474 3 
2.87028 8.6105 11.4833 3 
2.87059 11.4815 11.4834 3 
0.000213109 11.4813 8.61167 3 
0.00139323 11.4806 11.4826 3 
0.000245441 8.60988 11.4829 3 
5.74048 8.61079 8.61194 3 
5.74023 11.4816 8.61197 3 
4.30525 10.0461 10.0476 3 
7.17513 10.0457 10.0473 3 
5.74019 8.61048 11.4833 3 
5.73996 11.4815 11.4834 3 
8.61121 8.61051 8.61173 3 
11.483 8.61086 8.61215 3 
8.6104 11.4812 8.61163 3 
11.4817 11.4814 8.61182 3 
10.0454 10.045 10.0467 3 
8.61028 8.6098 11.4829 3 
11.4817 8.60991 11.4829 3 
8.60915 11.4805 11.4825 3 
11.4784 11.4788 11.4808 3 
14.3549 8.61169 8.61311 3 
14.3544 11.4829 8.61324 3 
12.9177 10.0458 10.0473 3 
15.7903 10.0473 10.0488 3 
14.3543 8.61124 11.4841 3 
14.3521 11.4803 11.482 3 
17.2261 8.6122 8.61376 3 
20.0968 8.61216 8.61381 3 
17.226 11.4841 8.61446 3 
20.0968 11.4841 8.61449 3 
18.6614 10.0478 10.0494 3 
17.226 8.61223 11.4852 3 
20.0969 8.6122 11.4853 3 
17.2257 11.4829 11.4844 3 
20.0971 11.4829 11.4844 3 
22.9679 8.61166 8.6132 3 
22.9684 11.483 8.61334 3 
21.5325 10.0473 10.0489 3 
22.9685 8.6112 11.4842 3 
22.9707 11.4804 11.482 3 
24.405 10.0458 10.0474 3 
28.7114 8.61052 8.61179 3 
25.8397 8.61084 8.61222 3 
25.841 11.4815 8.61189 3 
27.2772 10.0451 10.0467 3 
25.8409 8.60993 11.483 3 
25.8442 11.4789 11.4808 3 
2.87065 14.353 8.6117 3 
0.00149545 14.3522 8.61077 3 
1.4359 12.9171 10.0474 3 
1.43635 15.7889 10.047 3 
2.87073 14.3533 11.4835 3 
0.00184112 14.3528 11.4829 3 
5.74002 14.3529 8.61169 3 
4.3053 12.9174 10.0477 3 
7.17471 12.9171 10.0474 3 
4.30538 15.7891 10.0475 3 
7.17444 15.7887 10.047 3 
5.73995 14.3532 11.4835 3 
8.60924 14.3521 8.61078 3 
11.4785 14.3503 8.60901 3 
10.0443 12.9165 10.0468 3 
10.0425 15.7872 10.0453 3 
8.60885 14.3526 11.4829 3 
11.4778 14.3521 11.4824 3 
14.3521 14.3516 8.61057 3 
12.9161 12.9171 10.0474 3 
15.7898 12.9198 10.0501 3 
12.9091 15.7827 10.0407 3 
15.7855 15.7853 10.0439 3 
14.3509 14.3543 11.4846 3 
17.2257 14.354 8.61307 3 
20.0971 14.3541 8.61309 3 
18.6614 12.9211 10.0514 3 
18.6614 15.7893 10.0476 3 
17.2261 14.3593 11.4894 3 
20.0967 14.3594 11.4894 3 
22.9708 14.3517 8.6106 3 
21.533 12.9199 10.0501 3 
21.5373 15.7855 10.0438 3 
22.9718 14.3546 11.4846 3 
24.4066 12.9172 10.0475 3 
24.4137 15.7829 10.0407 3 
25.8443 14.3505 8.60905 3 
27.2783 12.9166 10.0469 3 
27.2803 15.7874 10.0452 3 
25.845 14.3524 11.4824 3 
2.8709 17.2249 8.61128 3 
2.8711 20.0973 8.61081 3 
0.00232731 17.2243 8.60991 3 
1.43659 18.6612 10.0465 3 
2.87079 17.2253 11.4832 3 
2.87087 20.0975 11.4828 3 
0.00295292 20.0973 8.60902 3 
0.00214676 17.2249 11.4823 3 
0.00238315 20.0979 11.4815 3 
5.73994 17.2249 8.61129 3 
5.73984 20.0972 8.61082 3 
4.30545 18.6612 10.0471 3 
7.1743 18.661 10.0465 3 
5.74005 17.2252 11.4832 3 
5.74006 20.0974 11.4828 3 
8.60854 17.2242 8.60995 3 
11.4761 17.2223 8.6068 3 
8.60795 20.0971 8.60912 3 
11.4743 20.0971 8.60502 3 
10.0416 18.6603 10.044 3 
8.60869 17.2247 11.4823 3 
11.4748 17.2223 11.4792 3 
8.60848 20.0977 11.4816 3 
11.4733 20.0986 11.477 3 
14.3491 17.223 8.60815 3 
14.346 20.0992 8.60621 3 
12.9049 18.6573 10.0365 3 
15.7804 18.6614 10.0405 3 
14.3336 17.2107 11.4667 3 
14.3223 20.0983 11.4574 3 
17.2249 17.2273 8.61319 3 
20.0979 17.2274 8.61318 3 
17.2209 20.1019 8.61267 3 
20.1018 20.102 8.61263 3 
18.6614 18.6706 10.0474 3 
17.2161 17.2159 11.4728 3 
20.1066 17.216 11.4728 3 
17.1946 20.1195 11.4739 3 
20.1282 20.1196 11.4739 3 
22.9737 17.2232 8.60809 3 
22.9768 20.0994 8.60613 3 
21.5424 18.6616 10.0405 3 
22.9892 17.2109 11.4665 3 
23.0005 20.0985 11.4573 3 
24.418 18.6575 10.0364 3 
25.8467 17.2225 8.60672 3 
25.8485 20.0973 8.6049 3 
27.2813 18.6605 10.0439 3 
25.848 17.2226 11.4791 3 
25.8496 20.0988 11.4768 3 
2.87126 22.9698 8.61041 3 
0.003629 22.971 8.60823 3 
1.43694 21.5339 10.0459 3 
1.43737 24.4068 10.0456 3 
2.87111 22.9699 11.4825 3 
0.00335829 22.9716 11.4808 3 
5.73971 22.9698 8.6104 3 
4.3055 21.5335 10.0467 3 
7.174 21.5338 10.0459 3 
4.30549 24.4059 10.0465 3 
5.73989 22.9698 11.4825 3 
7.17357 24.4068 10.0456 3 
8.6073 22.9709 8.60832 3 
11.4727 22.974 8.60313 3 
10.0391 24.4106 10.0418 3 
10.0404 21.5351 10.0426 3 
8.60753 22.9714 11.4809 3 
11.47 22.9778 11.4745 3 
14.3445 22.9784 8.60269 3 
12.9007 21.5391 10.0324 3 
15.7734 21.5481 10.0351 3 
12.8988 24.4228 10.0297 3 
15.7895 24.4122 10.0402 3 
14.3106 23.0089 11.4434 3 
17.2256 22.9714 8.61004 3 
20.0971 22.9714 8.61001 3 
18.6614 24.411 10.0414 3 
20.0868 22.9738 11.4786 3 
17.2359 22.9737 11.4787 3 
18.6614 21.5329 10.0508 3 
22.9783 22.9785 8.60259 3 
23.0122 23.0091 11.4434 3 
21.5494 21.5483 10.035 3 
24.424 24.4229 10.0296 3 
21.5332 24.4123 10.0401 3 
24.4222 21.5393 10.0323 3 
25.8502 22.9741 8.60297 3 
27.2825 21.5353 10.0424 3 
25.8529 22.978 11.4744 3 
27.2837 24.4107 10.0417 3 
2.87129 25.8422 8.61032 3 
0.00370342 25.8443 8.60822 3 
1.43701 27.2787 10.0462 3 
2.87125 25.842 11.4827 3 
0.00363539 25.8441 11.4815 3 
5.73964 25.8422 8.61033 3 
5.7397 25.842 11.4827 3 
7.17388 27.2787 10.0462 3 
4.30543 27.2777 10.0468 3 
8.60722 25.8443 8.60829 3 
11.4735 25.8493 8.60326 3 
11.4727 25.8493 11.4785 3 
8.60727 25.8441 11.4816 3 
10.0417 27.2813 10.0444 3 
14.3517 25.8461 8.60641 3 
14.3445 25.8497 11.4741 3 
15.7892 27.2787 10.0453 3 
12.9128 27.2821 10.0422 3 
20.0974 28.7115 11.4833 3 
17.2253 28.7116 11.4833 3 
17.2254 25.8445 8.60798 3 
20.0973 25.8445 8.60795 3 
17.2257 25.8423 11.4812 3 
18.6613 27.2779 10.0462 3 
20.0971 25.8423 11.4811 3 
22.9711 25.8462 8.60632 3 
21.5336 27.2786 10.0452 3 
24.41 27.2821 10.0422 3 
22.9784 25.8497 11.474 3 
25.8494 25.8494 8.60314 3 
27.2811 27.2814 10.0443 3 
25.8502 25.8494 11.4784 3 
1.43575 1.43636 12.9194 3 
2.87032 2.87073 14.3555 3 
1.43564 1.43581 15.7917 3 
2.87086 0.000701729 14.3555 3 
0.00160172 0.00170485 14.3556 3 
4.30538 1.436 12.9194 3 
7.17502 1.43641 12.9193 3 
4.30538 1.43551 15.7916 3 
7.17515 1.43585 15.7916 3 
5.74035 2.87072 14.3554 3 
5.74 0.000721909 14.3554 3 
10.0456 1.43663 12.9193 3 
11.4824 2.87053 14.3555 3 
11.48 0.00180221 14.3553 3 
8.60922 0.00177011 14.3555 3 
10.0459 1.43597 15.7917 3 
8.61095 2.87083 14.3555 3 
12.9173 1.43577 12.9191 3 
15.7892 1.43445 12.9194 3 
14.354 2.86985 14.3556 3 
12.9177 1.43504 15.7914 3 
15.7896 1.43365 15.7908 3 
18.6614 1.43385 12.9198 3 
17.2256 2.86929 14.3556 3 
18.6614 1.43287 15.7903 3 
20.0972 2.86926 14.3557 3 
21.5335 1.43439 12.9194 3 
24.4055 1.43569 12.9192 3 
22.9687 2.86977 14.3556 3 
21.5332 1.43356 15.7909 3 
24.4051 1.43496 15.7915 3 
28.7118 2.87079 14.3556 3 
27.2772 1.43658 12.9193 3 
25.8404 2.87045 14.3556 3 
25.8428 0.00177731 14.3554 3 
27.2769 1.43591 15.7917 3 
1.43483 4.30563 12.9194 3 
1.43513 7.17498 12.9192 3 
2.87016 5.74007 14.3553 3 
1.4349 4.30514 15.7914 3 
1.43542 7.17449 15.7912 3 
4.30528 4.30565 12.9194 3 
7.17577 4.30566 12.9194 3 
4.30522 7.17527 12.9193 3 
7.17535 7.17495 12.9192 3 
5.74034 5.74009 14.3553 3 
7.17571 4.30515 15.7914 3 
4.30531 4.30517 15.7914 3 
4.30522 7.17481 15.7912 3 
7.17506 7.17444 15.7912 3 
10.047 4.3056 12.9195 3 
10.0464 7.1748 12.9191 3 
11.4826 5.74014 14.3554 3 
10.0469 4.30513 15.7914 3 
10.0459 7.17426 15.7911 3 
8.61106 5.73996 14.3553 3 
12.9186 4.30551 12.9198 3 
15.7901 4.30541 12.9204 3 
12.9183 7.17555 12.9197 3 
15.7902 7.17664 12.9208 3 
12.9185 4.30508 15.7914 3 
15.79 4.30505 15.7915 3 
12.9177 7.17512 15.7914 3 
15.7896 7.17649 15.792 3 
14.3543 5.74069 14.3559 3 
18.6614 4.30535 12.9207 3 
18.6614 7.17702 12.9213 3 
20.097 5.74111 14.3565 3 
17.2258 5.74116 14.3565 3 
18.6614 4.305 15.7915 3 
18.6614 7.17719 15.7926 3 
21.5326 4.30535 12.9204 3 
24.4041 4.30542 12.9199 3 
21.5325 7.17656 12.9208 3 
24.4044 7.17552 12.9198 3 
21.5328 4.305 15.7915 3 
21.5332 7.17647 15.7921 3 
24.405 7.17515 15.7915 3 
24.4042 4.30502 15.7915 3 
22.9684 5.74065 14.356 3 
28.7115 5.73996 14.3553 3 
27.2757 4.30554 12.9196 3 
27.2762 7.17481 12.9192 3 
25.8401 5.74012 14.3555 3 
27.2758 4.3051 15.7915 3 
27.2767 7.1743 15.7912 3 
1.4359 10.0453 12.919 3 
0.000869965 8.60926 14.3548 3 
1.43626 10.0449 15.7911 3 
2.87072 11.4813 14.3553 3 
2.87046 8.6101 14.3552 3 
0.00209913 11.48 14.3546 3 
4.30525 10.0458 12.9193 3 
7.17459 10.0452 12.9189 3 
5.73999 8.61006 14.3552 3 
4.30524 10.0455 15.7913 3 
7.17425 10.0447 15.7911 3 
5.73978 11.4812 14.3553 3 
10.0439 10.0438 12.918 3 
8.60963 8.60913 14.3548 3 
8.60841 11.4798 14.3546 3 
10.0429 10.0428 15.7906 3 
11.4807 8.60915 14.3547 3 
11.4761 11.4766 14.3527 3 
12.9158 10.0443 12.918 3 
15.7896 10.0469 12.9202 3 
14.3533 8.61096 14.3557 3 
14.3491 11.478 14.3534 3 
12.9142 10.0432 15.7909 3 
15.7878 10.0467 15.7927 3 
18.6614 10.0481 12.9215 3 
17.2257 8.6129 14.3573 3 
17.2249 11.4831 14.3576 3 
20.0971 8.61288 14.3573 3 
18.6614 10.0494 15.7947 3 
20.0978 11.4832 14.3576 3 
21.5332 10.0469 12.9202 3 
24.4068 10.0443 12.9181 3 
21.5349 10.0468 15.7927 3 
24.4084 10.0434 15.7909 3 
22.9694 8.61097 14.3557 3 
22.9736 11.4782 14.3534 3 
27.2786 10.0439 12.918 3 
27.2796 10.043 15.7906 3 
25.8465 11.4769 14.3527 3 
25.8419 8.60924 14.3548 3 
1.43623 12.917 12.9191 3 
1.43617 15.7892 12.9193 3 
1.43639 12.9166 15.7914 3 
1.43593 15.7889 15.7916 3 
2.87069 14.3532 14.3555 3 
0.0020163 14.3524 14.355 3 
4.30529 12.9174 12.9194 3 
7.17433 12.9168 12.9191 3 
4.30537 15.7893 12.9195 3 
7.17457 15.7891 12.9193 3 
5.73995 14.3531 14.3555 3 
4.30528 12.9171 15.7915 3 
7.17416 12.9164 15.7914 3 
4.30537 15.7891 15.7916 3 
7.17481 15.7887 15.7916 3 
10.0424 12.915 12.9176 3 
10.0429 15.7885 12.9188 3 
11.4748 14.349 14.3527 3 
8.60861 14.3521 14.3551 3 
10.0415 12.9138 15.7907 3 
10.0431 15.7873 15.7916 3 
12.909 12.9105 12.913 3 
15.7855 12.9137 12.9156 3 
12.9109 15.7892 12.9194 3 
15.788 15.7974 12.9276 3 
12.9048 12.9064 15.7876 3 
15.7803 12.9105 15.7917 3 
12.9068 15.781 15.789 3 
15.7445 15.7395 15.7591 3 
14.3335 14.3365 14.3409 3 
18.6614 12.9175 12.9196 3 
18.6613 15.8072 12.9372 3 
17.2161 14.3428 14.3461 3 
20.1066 14.3429 14.346 3 
18.6613 12.9175 15.8008 3 
18.6613 15.687 15.7959 5 
21.5373 12.9139 12.9156 3 
24.4136 12.9108 12.913 3 
21.5347 15.7976 12.9275 3 
24.4118 15.7895 12.9194 3 
21.5423 12.9107 15.7917 3 
24.4178 12.9067 15.7876 3 
21.5781 15.7398 15.7591 3 
24.4159 15.7814 15.7889 3 
22.9891 14.3368 14.3409 3 
27.2802 12.9153 12.9175 3 
27.2799 15.7888 12.9188 3 
27.2811 12.9141 15.7907 3 
27.2796 15.7876 15.7915 3 
25.8479 14.3493 14.3526 3 
1.436 18.6615 12.9188 3 
2.8706 20.0974 14.3549 3 
1.4357 18.6612 15.7912 3 
2.87058 17.2253 14.3554 3 
0.00121468 20.0979 14.3544 3 
0.00140007 17.2253 14.3552 3 
4.30543 18.6613 12.9192 3 
7.17483 18.6613 12.9189 3 
5.74029 20.0972 14.355 3 
4.30542 18.6611 15.7913 3 
7.17515 18.661 15.7913 3 
5.7402 17.2252 14.3554 3 
10.0431 18.6612 12.9175 3 
8.60961 20.0977 14.3545 3 
11.4772 17.2251 14.3554 3 
8.60938 17.225 14.3553 3 
10.0443 18.661 15.7913 3 
11.4765 20.0998 14.3525 3 
12.9068 18.6587 12.9112 3 
15.7445 18.6289 12.8696 3 
14.3451 17.2308 14.361 3 
12.9134 18.661 15.7913 3 
15.8271 18.6611 15.7913 5 
14.3186 20.1069 14.3454 3 
20.4992 20.2473 14.2052 5 
18.6614 18.6658 12.8168 5 
17.2388 17.2625 14.3925 5 
18.6613 19.4102 15.0421 5 
16.8236 20.2472 14.2053 5 
20.0838 17.2626 14.3925 5 
21.5782 18.6291 12.8695 3 
22.9776 17.2311 14.3609 3 
24.416 18.659 12.9111 3 
23.0042 20.1073 14.3453 3 
21.4956 18.6614 15.7912 5 
24.4093 18.6613 15.7912 3 
27.2797 18.6615 12.9174 3 
25.8463 20.1 14.3524 3 
27.2785 18.6613 15.7912 3 
25.8455 17.2254 14.3552 3 
1.43628 21.534 12.9184 3 
1.43696 24.4064 12.9185 3 
1.43606 21.5334 15.7909 3 
1.43668 24.4057 15.7913 3 
0.00240201 22.9708 14.3545 3 
2.8709 22.9695 14.3549 3 
4.30551 21.5334 12.9189 3 
7.1746 21.5338 12.9184 3 
4.30551 24.4056 12.9189 3 
7.174 24.4064 12.9186 3 
5.74008 22.9694 14.3549 3 
4.30549 21.5331 15.791 3 
7.17485 21.5333 15.791 3 
4.30552 24.4051 15.7912 3 
7.17428 24.4057 15.7913 3 
10.042 21.536 12.9163 3 
10.0403 24.4097 12.9172 3 
11.4732 22.9752 14.3538 3 
10.0431 21.5347 15.7911 3 
10.0415 24.4082 15.792 3 
8.60846 22.9707 14.3546 3 
12.9013 21.5459 12.9064 3 
15.6861 21.6305 12.8219 3 