ITEM: TIMESTEP
12042
ITEM: NUMBER OF ATOMS
18
ITEM: BOX BOUNDS pp pp pp
0.0000000000000000e+00 2.8712000000000000e+01
0.0000000000000000e+00 2.8712000000000000e+01
0.0000000000000000e+00 2.8712000000000000e+01
ITEM: ATOMS x y z c_cna 
20.0963 20.0961 11.5225 5 
17.1219 20.0915 14.3566 5 
18.5102 18.51 12.5189 5 
17.2759 17.2757 14.3566 5 
19.3472 19.3472 14.3567 5 
18.5102 18.51 16.1942 5 
20.0917 17.1218 14.3566 5 
21.4951 18.6974 12.9342 5 
21.4951 18.6974 15.7789 5 
23.0707 20.1008 14.3565 5 
18.6975 21.4949 12.9342 5 
18.6975 21.4949 15.7789 5 
20.101 23.0705 14.3565 5 
21.6824 21.6822 12.519 5 
20.8454 20.8452 14.3565 5 
21.6824 21.6822 16.194 5 
22.9167 22.9165 14.3565 5 
20.0964 20.0961 17.1906 5 
ITEM: TIMESTEP
12043
ITEM: NUMBER OF ATOMS
18
ITEM: BOX BOUNDS pp pp pp
0.0000000000000000e+00 2.8712000000000000e+01
0.0000000000000000e+00 2.8712000000000000e+01
0.0000000000000000e+00 2.8712000000000000e+01
ITEM: ATOMS x y z c_cna 
20.0963 20.0961 11.5225 5 
17.1219 20.0915 14.3566 5 
18.5102 18.51 12.5189 5 
17.2759 17.2757 14.3566 5 
19.3472 19.3472 14.3567 5 
18.5102 18.51 16.1942 5 
20.0917 17.1218 14.3566 5 
21.4951 18.6974 12.9342 5 
21.4951 18.6974 15.7789 5 
23.0707 20.1008 14.3565 5 
18.6975 21.4949 12.9342 5 
18.6975 21.4949 15.7789 5 
20.101 23.0705 14.3565 5 
21.6824 21.6822 12.519 5 
20.8454 20.8452 14.3565 5 
21.6824 21.6822 16.194 5 
22.9167 22.9165 14.3565 5 
20.0964 20.0961 17.1906 5 
