ITEM: TIMESTEP
13044
ITEM: NUMBER OF ATOMS
2001
ITEM: BOX BOUNDS pp pp pp
0.0000000000000000e+00 2.8712000000000000e+01
0.0000000000000000e+00 2.8712000000000000e+01
0.0000000000000000e+00 2.8712000000000000e+01
ITEM: ATOMS x y z c_cna 
1.43604 1.43319 1.43503 3 
2.87139 2.86892 2.87049 3 
0.0015502 2.86957 2.86949 3 
2.87055 2.8687 0.00048688 3 
4.30604 1.43297 1.43591 3 
7.17626 1.43326 1.43631 3 
5.74129 2.86886 2.87116 3 
5.74057 2.86894 0.0012548 3 
10.047 1.43372 1.43614 3 
8.61162 2.86923 2.87117 3 
11.4826 2.86967 2.87081 3 
11.4826 2.86958 0.00131825 3 
8.61121 2.86931 0.00149285 3 
12.9184 1.43409 1.43573 3 
15.7903 1.43431 1.43525 3 
14.3542 2.86999 2.87032 3 
14.3544 2.86966 0.000945405 3 
18.6623 1.43445 1.43476 3 
17.2262 2.87019 2.86979 3 
20.0985 2.87034 2.86928 3 
17.2264 2.86966 0.000447354 3 
21.5345 1.43449 1.43429 3 
24.4065 1.43435 1.43401 3 
22.9708 2.87039 2.8689 3 
27.2778 1.43386 1.43422 3 
25.8427 2.87019 2.86886 3 
1.43604 4.30452 1.43498 3 
1.43592 7.17553 1.43498 3 
2.87127 5.74006 2.87049 3 
2.87047 5.74008 0.00049401 3 
0.00126818 5.73999 2.86967 3 
4.30592 4.30445 1.43582 3 
7.1761 4.3046 1.43627 3 
4.30582 7.17572 1.43586 3 
7.17606 7.17566 1.43629 3 
5.7412 5.74012 2.87111 3 
5.74049 5.74012 0.00123335 3 
10.047 4.30481 1.4362 3 
10.047 7.17545 1.43624 3 
8.61162 5.74015 2.87126 3 
11.4827 5.74013 2.87103 3 
11.4826 5.74014 0.00133378 3 
8.61119 5.74014 0.00149141 3 
12.9185 4.30493 1.43588 3 
15.7903 4.30498 1.43543 3 
12.9185 7.17527 1.43589 3 
15.7904 7.1751 1.43542 3 
14.3544 5.74007 2.87064 3 
14.3545 5.7401 0.000945063 3 
18.6624 4.30497 1.43493 3 
18.6624 7.17496 1.43493 3 
17.2263 5.73998 2.87017 3 
20.0984 5.73994 2.8697 3 
17.2265 5.74003 0.000445122 3 
24.4063 4.3049 1.43422 3 
21.5345 4.30495 1.43449 3 
21.5344 7.17494 1.43448 3 
22.9705 5.73994 2.86933 3 
24.4063 7.17501 1.4342 3 
27.2776 4.30474 1.43433 3 
27.2775 7.17521 1.43433 3 
25.8423 5.73996 2.86925 3 
1.43579 10.0469 1.43505 3 
2.8712 8.61115 2.87053 3 
2.8711 11.4826 2.87077 3 
0.00136568 8.61041 2.8695 3 
2.87039 8.6114 0.000500422 3 
0.00122165 11.4819 2.8696 3 
2.87032 11.4829 0.000539801 3 
4.30582 10.0471 1.43595 3 
7.17614 10.0469 1.43638 3 
5.74118 8.61132 2.87118 3 
5.74129 11.4828 2.87143 3 
5.74061 11.4827 0.00131078 3 
5.74045 8.61124 0.00129222 3 
10.0471 10.0464 1.4362 3 
8.6116 8.611 2.87122 3 
11.4827 8.61051 2.87084 3 
8.61182 11.4823 2.87137 3 
11.4827 11.4816 2.87078 3 
8.61119 8.61091 0.00155844 3 
8.61136 11.4822 0.00161128 3 
11.4828 11.4818 0.00133684 3 
11.4827 8.61064 0.00136157 3 
12.9186 10.046 1.43577 3 
15.7904 10.0457 1.43526 3 
14.3543 8.61011 2.87036 3 
14.3543 11.481 2.87018 3 
14.3546 8.61046 0.000929664 3 
14.3546 11.4816 0.000877045 3 
18.6625 10.0456 1.43476 3 
17.2263 8.60981 2.86981 3 
20.0985 8.60957 2.8693 3 
17.2263 11.4805 2.86961 3 
20.0987 11.4802 2.86899 3 
17.2266 11.4815 0.00040109 3 
17.2266 8.61037 0.000424903 3 
21.5345 10.0455 1.43429 3 
24.4064 10.0456 1.43402 3 
22.9707 8.60952 2.86888 3 
22.9711 11.4801 2.86847 3 
27.2776 10.0461 1.43422 3 
25.8426 8.60975 2.86886 3 
25.843 11.4806 2.86853 3 
1.43561 12.9183 1.43524 3 
1.43551 15.7896 1.4354 3 
2.87105 14.354 2.87109 3 
2.87033 14.3541 0.00056626 3 
0.000899765 14.3536 2.86998 3 
4.30589 12.9185 1.43614 3 
7.17648 12.9183 1.43653 3 
4.30606 15.7897 1.43626 3 
7.1769 15.7896 1.43667 3 
5.74158 14.3541 2.87175 3 
5.74089 14.354 0.00131885 3 
11.4832 14.3533 0.00128237 3 
10.0475 12.9179 1.43636 3 
10.0481 15.7894 1.43653 3 
8.61237 14.3539 2.87175 3 
11.4834 14.3534 2.87131 3 
8.61186 14.3537 0.00152648 3 
12.9189 12.9175 1.43591 3 
15.7906 12.9172 1.43548 3 
12.9195 15.7891 1.43628 3 
15.791 15.7889 1.43602 3 
14.3548 14.3529 2.87087 3 
14.3549 14.3531 0.000838022 3 
18.6625 12.917 1.43502 3 
18.6624 15.7887 1.43564 3 
17.2266 14.3523 2.87043 3 
20.0988 14.3519 2.86977 3 
17.2266 14.3531 0.000416521 3 
20.0982 14.3532 7.65687e-05 3 
21.5345 12.9169 1.43455 3 
24.4063 12.9172 1.4342 3 
21.5341 15.7887 1.43509 3 
22.9712 14.352 2.86902 3 
24.4056 15.7892 1.43467 3 
27.2772 12.9179 1.43447 3 
27.2768 15.7894 1.43472 3 
25.8424 14.353 2.86913 3 
1.43552 18.6606 1.43548 3 
2.87111 17.2251 2.87131 3 
2.8712 20.096 2.87134 3 
0.000725508 17.225 2.87021 3 
0.000713659 20.0961 2.87029 3 
2.87047 20.0959 0.000554913 3 
2.87038 17.2251 0.000565893 3 
4.3062 18.6605 1.43632 3 
7.17717 18.6605 1.43671 3 
5.74186 17.2251 2.87198 3 
5.74201 20.0959 2.87202 3 
5.74127 20.0959 0.00125516 3 
5.74115 17.2251 0.00128944 3 
10.0485 18.6604 1.43661 3 
8.61286 17.225 2.87205 3 
11.4842 17.2249 2.87186 3 
8.61308 20.0959 2.87213 3 
11.4844 20.0958 2.87201 3 
8.61252 20.0958 0.0014156 3 
8.61232 17.2249 0.00144613 3 
11.4839 17.2248 0.00117838 3 
11.4841 20.0958 0.00111777 3 
12.9201 18.6604 1.43651 3 
15.7914 18.6603 1.43647 3 
14.3557 17.2247 2.8719 3 
14.3562 20.0959 2.87228 3 
14.3553 17.2246 0.000804553 3 
14.3555 20.0959 0.000767495 3 
18.6623 18.6602 1.43611 3 
17.2271 17.2242 2.87173 3 
20.0986 17.224 2.87098 3 
17.2276 20.096 2.87239 3 
20.0981 20.0961 2.87149 3 
20.0974 20.0961 0.000145358 3 
17.2264 20.096 0.000430239 3 
20.0977 17.2248 0.000136479 3 
17.2265 17.2246 0.000431337 3 
21.5334 18.6604 1.43549 3 
24.4051 18.6606 1.43491 3 
22.9702 17.2245 2.87 3 
22.9697 20.0962 2.87031 3 
27.2766 18.6606 1.43481 3 
25.8418 17.2248 2.86959 3 
25.8417 20.0961 2.86972 3 
1.43559 21.5314 1.43545 3 
1.43576 24.4024 1.43535 3 
2.87129 22.9668 2.87122 3 
0.000884538 22.9671 2.87019 3 
2.87053 22.9668 0.00052597 3 
5.74127 22.9668 0.00124206 3 
4.30629 21.5313 1.43629 3 
7.17722 21.5313 1.43667 3 
5.74199 22.9667 2.87193 3 
4.30628 24.4023 1.43618 3 
7.17703 24.4023 1.43659 3 
10.0485 21.5313 1.43658 3 
8.61291 22.9667 2.87198 3 
11.4841 22.9668 2.87179 3 
10.0481 24.4024 1.43645 3 
8.61238 22.9668 0.00138577 3 
11.4838 22.967 0.0011253 3 
12.92 21.5314 1.43648 3 
15.7914 21.5316 1.43643 3 
15.7908 24.4031 1.43595 3 
14.3556 22.9671 2.87183 3 
12.9194 24.4027 1.43621 3 
14.3552 22.9672 0.000764539 3 
18.6623 21.5319 1.43608 3 
18.6624 24.4034 1.43557 3 
17.227 22.9678 2.87166 3 
20.0986 22.9682 2.87094 3 
17.2264 22.9674 0.000404743 3 
20.0976 22.9674 0.000112489 3 
21.5335 21.5318 1.43548 3 
24.4051 21.5317 1.43489 3 
21.5341 24.4034 1.43504 3 
22.9702 22.9677 2.86998 3 
24.4057 24.403 1.43461 3 
27.2767 21.5315 1.43479 3 
27.277 24.4026 1.43466 3 
25.8419 22.9674 2.86956 3 
0.00151633 28.7102 2.86957 3 
2.87141 28.7094 2.87072 3 
1.43593 27.2737 1.43522 3 
2.87137 25.838 2.87101 3 
0.00118712 25.8384 2.86991 3 
2.87059 25.8378 0.00051997 3 
2.8706 28.7092 0.00049994 3 
5.74153 28.7093 2.87135 3 
5.74081 28.7094 0.00123456 3 
4.30619 27.2735 1.43606 3 
7.17664 27.2736 1.43642 3 
5.7418 25.8378 2.87166 3 
5.7411 25.8379 0.00120357 3 
8.61184 28.7098 2.87129 3 
11.4826 28.7105 2.87073 3 
8.61191 25.8382 0.00141337 3 
10.0474 27.274 1.43624 3 
8.61243 25.838 2.87165 3 
11.4833 25.8385 2.8712 3 
8.61139 28.7099 0.0015079 3 
11.4827 28.7103 0.00128018 3 
11.4831 25.8385 0.0011969 3 
14.354 28.711 2.8701 3 
12.9187 27.2745 1.43583 3 
15.7904 27.2748 1.43542 3 
14.3546 25.8391 2.87076 3 
14.3544 28.7105 0.000865416 3 
14.3547 25.8388 0.000785825 3 
17.2264 28.7105 0.000430805 3 
17.2261 28.7115 2.86954 3 
20.0986 28.7118 2.86894 3 
18.6623 27.275 1.43498 3 
17.2264 25.8397 2.87033 3 
20.0988 25.8402 2.86971 3 
17.2264 25.8389 0.000395421 3 
20.0981 25.8389 3.42051e-05 3 
22.9712 28.7119 2.86845 3 
21.5345 27.2751 1.43449 3 
22.9712 25.8401 2.86896 3 
24.4064 27.2749 1.43416 3 
25.8432 28.7114 2.86848 3 
27.2774 27.2742 1.43443 3 
25.8426 25.8391 2.86907 3 
1.4369 1.43389 4.30524 3 
1.4371 1.43438 7.17645 3 
2.8717 2.86929 5.74115 3 
0.00219943 2.87021 5.74028 3 
4.30652 1.43328 4.30615 3 
7.17658 1.43348 4.30643 3 
4.30638 1.43374 7.17698 3 
7.17614 1.43427 7.17687 3 
5.74138 2.86922 5.74153 3 
10.0469 1.43427 4.30599 3 
10.0469 1.43498 7.17684 3 
8.61173 2.8696 5.74164 3 
11.4825 2.87022 5.74124 3 
12.9179 1.43508 4.30521 3 
15.7898 1.43566 4.30452 3 
12.9177 1.4361 7.17602 3 
15.7896 1.43675 7.17524 3 
14.354 2.87067 5.7407 3 
14.353 0.0013358 5.73915 3 
18.6622 1.43608 4.30386 3 
18.6625 1.43731 7.17442 3 
17.2261 2.87097 5.74016 3 
20.0987 2.87126 5.73959 3 
17.2256 0.00231045 5.73813 3 
20.0993 0.00316032 5.7371 3 
21.5351 1.43643 4.30324 3 
24.4079 1.43641 4.30297 3 
21.5361 1.43798 7.1736 3 
24.4095 1.43815 7.17348 3 
22.9715 2.8715 5.73915 3 
22.9735 0.00366045 5.7363 3 
27.2793 1.43547 4.30371 3 
27.2801 1.43642 7.17503 3 
25.8437 2.87128 5.73926 3 
25.846 0.00253843 5.73703 3 
1.43669 4.30479 4.30533 3 
1.4366 7.17525 4.30535 3 
1.43682 4.30496 7.17658 3 
1.43674 7.17503 7.17658 3 
2.87158 5.74004 5.74117 3 
0.0017054 5.73996 5.74057 3 
7.17651 4.30467 4.30638 3 
4.30641 4.30459 4.30603 3 
4.30634 7.17558 4.30605 3 
7.17648 7.17556 4.30639 3 
4.3064 4.30475 7.17692 3 
4.30631 7.17536 7.17692 3 
7.17641 4.30494 7.17708 3 
5.7414 5.7401 5.74155 3 
7.17638 7.17527 7.17708 3 
10.0471 4.30494 4.30627 3 
10.0471 7.17531 4.30628 3 
10.0472 4.30515 7.17719 3 
8.61184 5.74013 5.74174 3 
10.0473 7.17506 7.17721 3 
11.4828 5.74009 5.7416 3 
15.7902 4.30528 4.30547 3 
12.9184 4.30515 4.30591 3 
12.9185 7.175 4.30593 3 
15.7903 7.17475 4.3055 3 
12.9186 4.30533 7.17701 3 
15.7904 4.3054 7.17671 3 
12.9186 7.17475 7.17705 3 
14.3544 5.74003 5.74132 3 
15.7904 7.17455 7.17673 3 
18.6623 4.30534 4.30498 3 
18.6624 7.17454 4.30501 3 
18.6625 4.30545 7.17629 3 
17.2264 5.73994 5.74093 3 
18.6626 7.17433 7.17628 3 
20.0986 5.73988 5.74048 3 
21.5347 4.30544 4.30455 3 
24.4069 4.30545 4.3043 3 
21.5347 7.1744 4.30454 3 
24.4069 7.17441 4.30428 3 
21.535 4.30559 7.17585 3 
21.535 7.17413 7.17582 3 
22.9709 5.73989 5.74012 3 
24.4073 7.17405 7.17562 3 
24.4073 4.30572 7.17563 3 
27.2784 4.30523 4.30454 3 
27.2783 7.17469 4.30456 3 
27.2787 4.30546 7.17601 3 
25.8428 5.73992 5.74009 3 
27.2786 7.17437 7.17602 3 
1.43663 10.0461 4.30527 3 
1.43686 10.0456 7.17646 3 
2.87152 8.61078 5.74119 3 
2.87145 11.4821 5.74138 3 
0.0023372 11.4806 5.73988 3 
0.00201134 8.60974 5.7403 3 
4.30627 10.0468 4.30619 3 
7.17647 10.0467 4.30647 3 
4.30618 10.0464 7.17699 3 
5.74125 8.61094 5.74155 3 
7.17605 10.0459 7.17686 3 
5.7413 11.4823 5.74181 3 
10.047 10.0459 4.30602 3 
8.61171 8.61061 5.74166 3 
10.047 10.0451 7.17687 3 
11.4826 8.60991 5.74126 3 
8.61177 11.4817 5.7417 3 
11.4819 11.4801 5.74052 3 
12.9181 10.045 4.3053 3 
15.79 10.0444 4.30461 3 
12.9178 10.044 7.17611 3 
14.3542 8.60939 5.74079 3 
15.7898 10.0432 7.17533 3 
14.3532 11.4787 5.73929 3 
18.6624 10.0439 4.30393 3 
17.2262 8.60896 5.74021 3 
18.6627 10.0426 7.17448 3 
20.0987 8.60857 5.73961 3 
17.2258 11.4777 5.73824 3 
20.0994 11.4768 5.73715 3 
21.5351 10.0435 4.30326 3 
24.4078 10.0435 4.30301 3 
21.5362 10.0418 7.17362 3 
22.9715 8.60831 5.73912 3 
22.9734 11.4763 5.73635 3 
24.4094 10.0417 7.1735 3 
27.2791 10.0445 4.30373 3 
25.8436 8.6086 5.73928 3 
27.2799 10.0435 7.17507 3 
25.8458 11.4774 5.73707 3 
1.43638 12.9178 4.30564 3 
1.43618 15.7894 4.3061 3 
1.43669 12.9171 7.17661 3 
1.43626 15.7891 7.17734 3 
2.87132 14.3537 5.74194 3 
0.00176038 14.3529 5.74051 3 
4.30648 15.7896 4.30702 3 
4.30633 12.9183 4.30661 3 
7.17683 12.9182 4.3069 3 
7.17732 15.7896 4.30742 3 
4.30624 12.9179 7.17745 3 
7.17631 12.9174 7.17722 3 
4.30643 15.7894 7.17811 3 
5.74161 14.3539 5.74241 3 
7.17705 15.7893 7.1781 3 
10.0473 12.9174 4.3063 3 
10.0481 15.7893 4.3071 3 
10.047 12.9163 7.17698 3 
8.61246 14.3535 5.74244 3 
10.0484 15.7888 7.17835 3 
11.4825 14.3523 5.74122 3 
12.9181 12.9163 4.30533 3 
15.7899 12.9154 4.30456 3 
12.9192 15.7888 4.30658 3 
15.7908 15.7879 4.30621 3 
12.916 12.9132 7.17429 3 
15.788 12.9109 7.17207 3 
12.9172 15.7867 7.17575 3 
14.3532 14.3505 5.73964 3 
15.7886 15.7838 7.17331 3 
18.6626 12.9146 4.30371 3 
18.6633 15.7869 4.30552 3 
18.6627 12.9091 7.17024 3 
17.2261 14.349 5.73849 3 
18.6648 15.7808 7.17134 3 
20.1008 14.3476 5.73693 3 
21.536 12.9141 4.30275 3 
21.5363 15.7867 4.30415 3 
24.4076 15.7882 4.30379 3 
24.4089 12.9145 4.30236 3 
21.5394 12.9074 7.16826 3 
24.4146 12.9081 7.16833 3 
21.5439 15.7792 7.16773 3 
22.9757 14.3475 5.73545 3 
24.4115 15.7864 7.1714 3 
27.2789 12.9166 4.30396 3 
27.2783 15.7889 4.30458 3 
27.2805 12.9144 7.174 3 
25.845 14.3512 5.73788 3 
27.2791 15.7882 7.17527 3 
1.43617 18.6606 4.30634 3 
1.43613 18.6605 7.17783 3 
2.87134 17.225 5.74239 3 
2.8714 20.096 5.74254 3 
0.00137078 17.2248 5.74111 3 
0.00131884 20.0961 5.74133 3 
4.30664 18.6605 4.30723 3 
7.17768 18.6605 4.3077 3 
4.3066 18.6605 7.17852 3 
5.74198 17.2251 5.7429 3 
7.17757 18.6605 7.17867 3 
5.74214 20.0959 5.74305 3 
10.0487 18.6605 4.30756 3 
8.61324 17.225 5.74324 3 
10.0495 18.6604 7.17945 3 
11.4838 17.2247 5.74263 3 
8.61355 20.0959 5.7435 3 
11.4844 20.0959 5.74309 3 
12.9202 18.6604 4.30751 3 
15.7923 18.6603 4.30807 3 
12.9194 18.6602 7.17815 3 
14.3553 17.2241 5.74213 3 
15.7927 18.6595 7.17827 3 
14.3564 20.0959 5.74333 3 
18.6637 18.6594 4.30753 3 
17.2278 17.2225 5.74184 3 
18.6674 18.6557 7.17772 3 
20.1016 17.2211 5.74009 3 
17.2298 20.096 5.74441 3 
20.0993 20.0961 5.74242 3 
21.5347 18.6601 4.30585 3 
24.4068 18.6604 4.30447 3 
21.5368 18.6604 7.17505 3 
22.9727 17.2239 5.73878 3 
24.41 18.6602 7.17294 3 
22.9718 20.0962 5.73949 3 
27.2781 18.6605 4.30491 3 
25.844 17.2244 5.73894 3 
27.2785 18.6604 7.17609 3 
25.8437 20.0962 5.73928 3 
1.43646 24.4026 4.30602 3 
1.43626 21.5315 4.3063 3 
1.43621 21.5316 7.17781 3 
2.87151 22.967 5.74234 3 
1.43651 24.403 7.17728 3 
0.00152766 22.9673 5.74109 3 
4.30671 21.5313 4.3072 3 
7.17772 21.5313 4.30767 3 
7.17747 24.4023 4.30734 3 
4.30669 24.4023 4.30694 3 
4.30667 21.5314 7.17849 3 
7.17761 21.5313 7.17863 3 
4.30664 24.4025 7.17804 3 
5.74209 22.9668 5.74284 3 
7.17718 24.4026 7.17803 3 
10.0487 21.5313 4.30752 3 
10.0481 24.4025 4.30701 3 
10.0495 21.5313 7.17938 3 
8.61329 22.9668 5.74318 3 
10.0484 24.4031 7.17826 3 
11.4838 22.9671 5.74253 3 
12.9201 21.5314 4.30745 3 
15.7922 21.5317 4.30804 3 
12.919 24.4031 4.30646 3 
15.7906 24.4041 4.30611 3 
12.9194 21.5316 7.17808 3 
15.7926 21.5324 7.17824 3 
14.3551 22.9677 5.74205 3 
15.7884 24.4081 7.17319 3 
12.917 24.4052 7.17564 3 
18.6631 24.4052 4.30544 3 
18.6636 21.5327 4.30751 3 
18.6673 21.5364 7.17769 3 
17.2277 22.9696 5.74179 3 
18.6646 24.4113 7.17126 3 
20.1014 22.9711 5.74004 3 
21.5346 21.5322 4.30584 3 
24.4069 21.5319 4.30447 3 
21.5362 24.4055 4.30412 3 
24.4077 24.404 4.30376 3 
21.5368 21.5318 7.17504 3 
21.5438 24.4129 7.16771 3 
22.9727 22.9684 5.73878 3 
24.41 21.5321 7.17295 3 
24.4116 24.4058 7.17137 3 
27.2781 21.5318 4.3049 3 
27.2785 24.4033 4.30454 3 
27.2786 21.5319 7.1761 3 
25.8441 22.9679 5.73895 3 
27.2793 24.404 7.17524 3 
2.87174 28.7099 5.74134 3 
0.00261593 28.7114 5.73984 3 
1.43672 27.2742 4.30559 3 
1.437 27.2749 7.17657 3 
2.87163 25.8383 5.74186 3 
0.00204105 25.8391 5.74044 3 
5.74151 28.7098 5.74177 3 
4.30663 27.2737 4.30653 3 
7.17698 27.2738 4.30683 3 
4.30651 27.2741 7.17739 3 
5.74183 25.8381 5.74232 3 
7.17642 27.2745 7.1772 3 
10.0472 27.2745 4.30625 3 
11.4818 28.712 5.74045 3 
8.61179 28.7104 5.74168 3 
8.6125 25.8384 5.74238 3 
10.047 27.2757 7.17693 3 
11.4824 25.8397 5.74111 3 
12.9179 27.2757 4.30523 3 
15.7897 27.2766 4.30441 3 
12.9158 27.2788 7.17417 3 
14.353 25.8415 5.73951 3 
15.7877 27.2811 7.17194 3 
18.6624 27.2774 4.30364 3 
17.2258 25.843 5.73837 3 
18.6624 27.2829 7.17016 3 
20.1006 25.8445 5.73689 3 
21.536 27.2779 4.3027 3 
24.409 27.2776 4.30228 3 
21.5393 27.2846 7.16821 3 
22.9757 25.8446 5.7354 3 
24.4147 27.2839 7.16831 3 
27.2792 27.2755 4.30389 3 
25.8452 25.8409 5.73784 3 
27.2808 27.2776 7.17397 3 
2.87151 2.86952 8.61256 3 
1.43677 1.43453 10.0484 3 
2.87107 2.86962 11.4844 3 
0.00175668 2.87035 11.4844 3 
0.00215844 2.87042 8.61214 3 
5.74099 2.86966 8.61258 3 
4.30592 1.4341 10.0484 3 
7.17538 1.43509 10.048 3 
5.74043 2.87 11.4842 3 
8.61134 2.87023 8.6125 3 
11.4827 2.87058 8.61267 3 
10.0461 1.4361 10.0477 3 
8.61077 2.87072 11.4841 3 
11.4824 2.87087 11.4844 3 
8.60927 0.00133742 11.4831 3 
11.482 0.000902834 8.61205 3 
11.4805 0.0026865 11.4828 3 
14.3542 2.87085 8.61239 3 
14.3527 0.00270908 8.6105 3 
14.3539 0.00217322 11.4841 3 
12.9181 1.43632 10.0482 3 
15.7901 1.43644 10.0477 3 
14.3545 2.87058 11.4847 3 
17.2264 2.87091 8.61194 3 
20.0991 2.87119 8.61135 3 
20.1013 0.00308027 11.4816 3 
18.663 1.43659 10.0469 3 
17.2266 2.87026 11.4843 3 
20.0991 2.87046 11.4838 3 
17.2257 0.00354543 8.60924 3 
20.1004 0.0048406 8.60779 3 
17.2266 0.00189182 11.4829 3 
22.972 2.87169 8.61098 3 
22.9751 0.004853 11.4824 3 
21.5367 1.43762 10.0462 3 
24.4094 1.43799 10.0468 3 
22.9716 2.87118 11.4838 3 
22.976 0.00611763 8.60697 3 
25.8439 2.87151 8.6114 3 
25.8467 0.00367262 8.60943 3 
25.8459 0.00317677 11.4836 3 
27.2798 1.43645 10.0478 3 
25.8434 2.87125 11.4842 3 
2.87143 5.74003 8.61256 3 
1.43655 4.30499 10.0484 3 
1.43647 7.17494 10.0484 3 
2.87101 5.74001 11.4844 3 
0.00128196 5.73991 11.4845 3 
0.00166056 5.73994 8.61234 3 
5.74116 5.7401 8.61268 3 
4.30595 7.17521 10.0484 3 
4.306 4.3049 10.0484 3 
7.17602 4.30517 10.0484 3 
7.17599 7.17502 10.0484 3 
5.74071 5.74008 11.4843 3 
8.6117 5.7401 8.61281 3 
11.483 5.74007 8.61299 3 
10.0471 4.30535 10.0486 3 
10.0471 7.17479 10.0486 3 
8.61135 5.74008 11.4844 3 
11.4829 5.74005 11.4847 3 
14.3547 5.73998 8.61292 3 
15.7906 4.30521 10.0487 3 
12.9188 4.30534 10.0488 3 
12.9188 7.1747 10.0488 3 
15.7907 7.17467 10.0487 3 
14.3548 5.74 11.4849 3 
17.2266 5.7399 8.61263 3 
20.0987 5.73984 8.61223 3 
18.6627 4.30514 10.0483 3 
18.6628 7.17455 10.0483 3 
17.2267 5.73989 11.4847 3 
20.0987 5.73982 11.4843 3 
22.971 5.73984 8.61193 3 
21.535 4.30535 10.048 3 
21.535 7.17428 10.0479 3 
22.9707 5.73981 11.4842 3 
24.4071 7.17407 10.048 3 
24.4071 4.30559 10.048 3 
25.8428 5.73987 8.61202 3 
27.2785 4.30544 10.0482 3 
27.2784 7.17436 10.0482 3 
25.8425 5.73984 11.4844 3 
2.87137 8.6105 8.61257 3 
2.87128 11.4817 8.61269 3 
0.00240178 11.48 8.61171 3 
1.43657 10.0454 10.0484 3 
2.87094 8.61037 11.4844 3 
2.87086 11.4815 11.4844 3 
0.00162719 8.6095 11.4844 3 
0.00202089 8.60947 8.61214 3 
0.00187225 11.4801 11.4842 3 
5.7409 8.61048 8.61254 3 
5.74077 11.4816 8.61261 3 
4.30577 10.046 10.0484 3 
7.17529 10.045 10.048 3 
5.74037 8.6101 11.4842 3 
5.74016 11.481 11.4841 3 
8.61132 8.60995 8.6125 3 
11.4827 8.60953 8.6127 3 
8.61055 11.4801 8.61179 3 
11.4822 11.4791 8.61211 3 
10.0461 10.044 10.0478 3 
8.61075 8.60943 11.4841 3 
11.4824 8.60922 11.4843 3 
8.60924 11.4787 11.4831 3 
11.4806 11.4774 11.4828 3 
14.3544 8.60916 8.61243 3 
14.3529 11.4773 8.61059 3 
12.9183 10.0437 10.0483 3 
15.7903 10.0435 10.0477 3 
14.3546 8.6094 11.4847 3 
14.3542 11.4778 11.4841 3 
17.2266 8.60894 8.61195 3 
20.0992 8.60853 8.61136 3 
17.226 11.4764 8.6093 3 
20.1007 11.475 8.60782 3 
18.6633 10.0432 10.0469 3 
17.2268 8.60955 11.4843 3 
20.0992 8.60919 11.4838 3 
17.2269 11.478 11.4828 3 
20.1016 11.4768 11.4815 3 
22.972 8.60802 8.61098 3 
22.976 11.4738 8.60699 3 
21.5368 10.0421 10.0462 3 
22.9716 8.60847 11.4838 3 
22.9752 11.475 11.4824 3 
24.4093 10.0418 10.0468 3 
25.8438 8.60828 8.61142 3 
25.8466 11.4762 8.60948 3 
27.2796 10.0434 10.0477 3 
25.8433 8.6085 11.4842 3 
25.8458 11.4767 11.4836 3 
2.87116 14.3534 8.61317 3 
0.00186651 14.3519 8.61169 3 
1.43634 12.9169 10.0484 3 
1.43583 15.7887 10.0488 3 
2.87079 14.3531 11.4847 3 
0.00111514 14.3519 11.484 3 
5.74125 14.3534 8.6133 3 
4.30585 12.9175 10.0487 3 
7.17532 12.9163 10.048 3 
4.30622 15.7892 10.0494 3 
7.17652 15.7888 10.0491 3 
5.74083 14.3528 11.4846 3 
8.61121 14.3523 8.61239 3 
11.4826 14.3508 8.61262 3 
10.0443 12.9132 10.0459 3 
10.0457 15.7867 10.0471 3 
8.60958 14.3505 11.4831 3 
11.476 14.3439 11.4783 3 
14.3483 14.3439 8.606 3 
12.9177 12.9126 10.0477 3 
15.788 12.9097 10.0445 3 
12.9198 15.7857 10.0498 3 
15.7762 15.7684 10.0318 3 
14.3548 14.3458 11.4847 3 
17.2229 14.3397 8.60172 3 
20.1047 14.3354 8.59755 3 
18.6642 12.9081 10.0422 3 
18.6639 15.7572 10.0226 3 
17.2243 14.3417 11.4764 3 
20.1115 14.3362 11.4715 3 
22.9883 14.3335 8.5947 3 
21.5434 12.9047 10.0396 3 
21.5745 15.7454 10.0085 3 
22.9855 14.3355 11.4783 3 
24.4147 12.9074 10.0436 3 
24.4152 15.7792 10.0391 3 
25.8475 14.3475 8.60724 3 
27.2801 12.914 10.0469 3 
27.2788 15.7866 10.0466 3 
25.846 14.3476 11.4822 3 
2.87114 17.2249 8.61385 3 
2.87118 20.096 8.61411 3 
0.000736658 20.0961 8.61318 3 
1.43552 18.6603 10.0494 3 
2.87079 17.2247 11.4852 3 
2.87086 20.096 11.4855 3 
0.000942864 17.2245 8.61272 3 
5.74184 17.225 8.6141 3 
5.74207 20.0959 8.6144 3 
4.30655 18.6605 10.05 3 
7.17751 18.6604 10.0501 3 
5.74187 17.2247 11.4857 3 
5.74232 20.0959 11.4862 3 
8.61259 17.2247 8.61378 3 
11.4852 17.2244 8.6152 3 
8.61314 20.0959 8.6143 3 
11.4864 20.0959 8.61634 3 
10.0481 18.6602 10.0494 3 
8.61208 17.2242 11.4852 3 
11.479 17.2202 11.4808 3 
8.61331 20.0959 11.4864 3 
11.4826 20.0959 11.4846 3 
14.3508 17.2202 8.60902 3 
14.3547 20.0959 8.61267 3 
12.9245 18.6607 10.0545 3 
15.7813 18.6509 10.038 3 
14.3628 17.2228 11.4927 3 
14.3724 20.096 11.5024 3 
17.227 17.2151 8.60565 3 
20.1137 17.2082 8.60017 3 
17.236 20.096 8.61247 3 
20.0984 20.0961 8.61579 3 
18.6849 18.6294 10.0389 3 
17.1944 17.1794 11.4347 3 
20.1962 17.1209 11.3868 3 
17.2312 20.0961 11.3821 5 
20.0469 20.0961 11.5361 5 
22.9778 17.2243 8.60518 3 
22.9765 20.0962 8.60637 3 
21.5393 18.6708 10.0437 3 
22.9828 17.2083 11.4693 3 
22.9671 20.0962 11.4845 3 
24.4079 18.6605 10.0461 3 
28.712 17.2239 11.4842 3 
28.7115 20.0961 11.4847 3 
25.8442 17.2239 8.61017 3 
25.8435 20.0962 8.6111 3 
27.2771 18.6601 10.0482 3 
25.8429 17.2212 11.4813 3 
25.8405 20.0961 11.4835 3 
2.8713 22.9671 8.61381 3 
0.00107131 22.9677 8.61272 3 
6.08529e-05 22.9682 11.4842 3 
1.43558 21.5317 10.0494 3 
1.43605 24.4034 10.0488 3 
2.87092 22.9673 11.4852 3 
5.74194 22.9669 8.61404 3 
7.17659 24.4031 10.049 3 
4.30659 21.5314 10.05 3 
7.17753 21.5314 10.0501 3 
4.30643 24.4027 10.0494 3 
5.74195 22.9671 11.4856 3 
8.61263 22.9671 8.6137 3 
11.4851 22.9675 8.61509 3 
10.0457 24.4052 10.047 3 
10.0481 21.5316 10.0493 3 
8.61209 22.9677 11.4851 3 
11.4789 22.9717 11.4807 3 
14.3506 22.9717 8.60892 3 
12.9245 21.5312 10.0545 3 
15.7812 21.5412 10.038 3 
12.9197 24.4063 10.0497 3 
15.776 24.4236 10.0318 3 
14.3626 22.9692 11.4927 3 
17.2268 22.9769 8.60558 3 
20.1135 22.984 8.60015 3 
18.6848 21.5627 10.039 3 
18.6637 24.4349 10.0226 3 
20.1959 23.0711 11.387 3 
17.1942 23.0127 11.4347 3 
22.9777 22.968 8.60519 3 
22.9827 22.984 11.4693 3 
21.5392 21.5215 10.0437 3 
24.4152 24.413 10.0391 3 
21.5743 24.4467 10.0086 3 
24.4079 21.5318 10.0461 3 
25.8442 22.9684 8.61018 3 
27.2771 21.5322 10.0482 3 
25.8429 22.9711 11.4814 3 
27.2789 24.4055 10.0466 3 
0.00264317 28.7119 8.61171 3 
2.87153 28.7103 8.61269 3 
2.87146 25.8386 8.61314 3 
0.00212157 25.8401 8.6117 3 
2.87107 28.7105 11.4845 3 
1.4366 27.2751 10.0484 3 
2.87102 25.8388 11.4847 3 
0.002102 28.7118 11.4843 3 
0.00132346 25.8402 11.4841 3 
5.74094 28.7105 8.61262 3 
5.74029 28.7111 11.4841 3 
5.74142 25.8385 8.61323 3 
5.74096 25.8391 11.4846 3 
7.1754 27.2756 10.048 3 
4.30609 27.2745 10.0487 3 
8.61057 28.712 8.61178 3 
8.61125 25.8397 8.61233 3 
11.4825 25.8411 8.61253 3 
11.4759 25.8481 11.4782 3 
8.60959 25.8414 11.4831 3 
10.0442 27.2788 10.0459 3 
14.3481 25.8481 8.60587 3 
14.3545 25.8461 11.4846 3 
15.7877 27.2823 10.0444 3 
12.9176 27.2794 10.0476 3 
17.2227 25.8523 8.60164 3 
20.1045 25.8566 8.59753 3 
17.224 25.8503 11.4764 3 
18.6639 27.2838 10.0422 3 
20.1113 25.8558 11.4716 3 
22.9882 25.8585 8.59473 3 
21.5432 27.2873 10.0397 3 
24.4147 27.2846 10.0435 3 
22.9853 25.8567 11.4783 3 
25.8476 25.8446 8.60723 3 
27.2803 27.278 10.0469 3 
25.8461 25.8445 11.4822 3 
1.43627 1.43445 12.9205 3 
2.87056 2.86965 14.3565 3 
1.43576 1.43429 15.7926 3 
0.00122636 2.87018 14.3567 3 
4.3054 1.43433 12.9203 3 
7.1746 1.43571 12.9199 3 
4.30486 1.43447 15.7924 3 
7.1739 1.43619 15.7923 3 
5.73985 2.87026 14.3562 3 
10.0452 1.4368 12.9198 3 
8.61015 2.87111 14.3562 3 
11.4791 0.00357512 14.3559 3 
10.0443 1.43743 15.7927 3 
8.60817 0.00233215 14.3557 3 
11.4818 2.87105 14.3566 3 
12.9175 1.43648 12.9203 3 
15.7903 1.43562 12.9207 3 
14.3541 2.87036 14.3569 3 
12.9167 1.43671 15.7933 3 
15.7896 1.43544 15.7934 3 
14.3526 0.00190421 14.3569 3 
18.663 1.43538 12.9199 3 
17.2263 2.86995 14.3566 3 
18.6623 1.43561 15.7926 3 
17.2263 0.000627614 14.3566 3 
20.1001 0.00191048 14.3563 3 
20.0986 2.87024 14.3563 3 
21.536 1.43658 12.9199 3 
24.4085 1.4373 12.9204 3 
22.9737 0.00356466 14.3572 3 
21.5353 1.43642 15.7928 3 
22.971 2.87086 14.3565 3 
24.4078 1.43671 15.7933 3 
27.2791 1.43609 12.9206 3 
25.8428 2.87093 14.3568 3 
27.2785 1.43561 15.7931 3 
25.8448 0.00230321 14.3572 3 
1.43608 4.30498 12.9205 3 
1.436 7.17496 12.9205 3 
2.8705 5.74003 14.3565 3 
1.43558 4.30493 15.7926 3 
1.43549 7.17507 15.7926 3 
0.000808539 5.73995 14.3566 3 
4.3055 4.30498 12.9203 3 
7.17551 4.30534 12.9202 3 
4.30545 7.17511 12.9203 3 
7.17549 7.17481 12.9202 3 
5.74017 5.74008 14.3563 3 
7.17497 4.30552 15.7924 3 
4.30495 4.30505 15.7924 3 
4.30491 7.17509 15.7924 3 
7.17495 7.17472 15.7924 3 
10.0467 4.30549 12.9204 3 
10.0467 7.17466 12.9204 3 
11.4825 5.74009 14.3567 3 
8.61089 5.74011 14.3564 3 
10.0462 4.30567 15.7926 3 
10.0462 7.17457 15.7926 3 
12.9186 4.30532 12.9208 3 
15.7905 4.30502 12.9208 3 
12.9186 7.17477 12.9207 3 
15.7906 7.17491 12.9207 3 
14.3545 5.74003 14.3568 3 
12.9181 4.30538 15.7929 3 
15.7902 4.30503 15.7928 3 
12.9182 7.17481 15.7928 3 
15.7903 7.175 15.7927 3 
18.6625 4.30489 12.9204 3 
18.6626 7.17485 12.9204 3 
18.6622 4.305 15.7924 3 
18.6623 7.17488 15.7923 3 
20.0984 5.73986 14.3563 3 
17.2264 5.73993 14.3566 3 
21.5347 4.30511 12.9202 3 
24.4067 4.30541 12.9204 3 
21.5347 7.17452 12.9202 3 
24.4067 7.17427 12.9204 3 
21.5343 4.30516 15.7923 3 
21.5344 7.17459 15.7923 3 
24.4063 7.17446 15.7926 3 
24.4063 4.30531 15.7926 3 
22.9704 5.73984 14.3564 3 
27.278 4.3053 12.9206 3 
27.278 7.17446 12.9205 3 
27.2776 4.3052 15.7927 3 
27.2775 7.17466 15.7927 3 
25.8421 5.73986 14.3566 3 
1.43609 10.0455 12.9205 3 
2.87043 8.61037 14.3564 3 
0.00110235 8.60974 14.3567 3 
1.43558 10.0457 15.7925 3 
2.8704 11.4815 14.3564 3 
0.00125337 11.4805 14.3566 3 
5.7398 8.60988 14.3562 3 
4.30527 10.0457 12.9203 3 
7.17455 10.0444 12.9198 3 
4.30473 10.0456 15.7923 3 
7.17384 10.044 15.7923 3 
5.73955 11.4806 14.3562 3 
8.61014 8.60908 14.3562 3 
10.0453 10.0433 12.9198 3 
11.4819 8.6091 14.3565 3 
10.0444 10.0427 15.7926 3 
11.4793 11.4765 14.3559 3 
8.60816 11.4778 14.3557 3 
12.9177 10.0436 12.9203 3 
15.7906 10.0443 12.9205 3 
12.9169 10.0434 15.7932 3 
15.7898 10.0446 15.7932 3 
14.3542 8.60969 14.3568 3 
14.3528 11.4781 14.3568 3 
17.2265 8.60996 14.3565 3 
18.6633 10.0444 12.9198 3 
20.0988 8.60953 14.3562 3 
20.1003 11.478 14.3562 3 
18.6625 10.0443 15.7924 3 
17.2266 11.4793 14.3565 3 
21.5361 10.0432 12.9198 3 
24.4085 10.0425 12.9203 3 
22.9738 11.4763 14.357 3 
22.9711 8.60887 14.3564 3 
21.5354 10.0434 15.7927 3 
24.4077 10.0432 15.7932 3 
27.279 10.0438 12.9206 3 
25.8428 8.60887 14.3567 3 
25.8448 11.4776 14.3572 3 
27.2783 10.0443 15.793 3 
1.43582 12.9169 12.9204 3 
1.43522 15.7886 12.9204 3 
0.000443062 14.3523 14.3563 3 
2.87036 14.3531 14.3564 3 
1.43533 12.9172 15.7924 3 
1.4348 15.7889 15.7919 3 
4.30543 12.9172 12.9204 3 
7.17448 12.9154 12.9198 3 
4.30595 15.7888 12.9208 3 
7.17614 15.7879 12.9207 3 
4.30492 12.917 15.7923 3 
7.17364 12.9147 15.7925 3 
4.30551 15.7886 15.7924 3 
7.17543 15.7869 15.7932 3 
5.74035 14.3523 14.3565 3 
10.042 12.9109 12.9179 3 
10.0433 15.7839 12.9185 3 
10.0402 12.9092 15.7926 3 
10.0413 15.7808 15.7947 3 
8.60844 14.349 14.356 3 
11.4717 14.3398 14.3528 3 
12.9145 12.9097 12.9179 3 
15.7907 12.9122 12.9206 3 
12.9019 15.7684 12.9061 3 
15.7963 15.78 12.9262 3 
14.3465 14.3418 14.3542 3 
12.9123 12.9083 15.7941 3 
15.7878 12.9115 15.7953 3 
12.8927 15.7572 15.7938 3 
15.7807 15.7536 15.8024 3 
18.6654 12.9115 12.9176 3 
18.6726 15.7535 12.9105 3 
17.2266 14.3485 14.3565 3 
18.6625 12.9122 15.7923 3 
18.6569 15.7801 15.7868 3 
20.1067 14.3418 14.3588 3 
21.5409 12.9082 12.9188 3 
21.5605 15.7572 12.9191 3 
24.4117 15.7809 12.9182 3 
22.9813 14.3397 14.3601 3 
21.5386 12.9097 15.795 3 
24.411 12.9109 15.795 3 
21.5513 15.7685 15.8068 3 
24.4097 15.784 15.7944 3 
24.4128 12.9091 12.9203 3 
27.2792 12.9146 12.9203 3 
27.2774 15.7869 12.9196 3 
27.2784 12.9154 15.7931 3 
27.2767 15.788 15.7921 3 
25.8445 14.349 14.3569 3 
1.43481 18.6602 12.9205 3 
2.87045 20.096 14.3564 3 
2.87039 17.2246 14.3564 3 
1.43439 18.6604 15.7914 3 
4.30646 18.6603 12.9214 3 
7.17803 18.6602 12.9223 3 
5.74238 20.0959 14.3576 3 
5.74164 17.2242 14.3571 3 
4.30602 18.6601 15.7923 3 
7.17746 18.6593 15.7937 3 
10.0482 18.6595 12.9227 3 
10.0477 18.6556 15.7974 3 
11.4757 17.2151 14.3569 3 
8.61438 20.0959 14.3598 3 
8.6118 17.2225 14.3578 3 
11.4825 20.096 14.366 3 
12.908 18.6508 12.9112 3 
15.8278 18.6737 12.9577 5 
14.3048 17.1794 14.3243 3 
14.2521 20.0961 14.3612 5 
12.9091 18.6294 15.8149 3 
15.6405 18.2585 15.9426 5 
16.4775 20.0962 15.1054 5 
20.2009 20.0961 14.3518 5 
18.8129 18.2584 12.7703 5 
17.9756 20.0959 13.6074 5 
17.2266 17.262 14.3564 5 
18.6254 18.6738 15.7552 5 
20.1484 17.1794 14.3886 3 
22.9705 20.0962 14.347 3 
21.544 18.6295 12.898 3 
24.4052 18.6558 12.9155 3 
22.9774 17.2152 14.356 3 
21.5451 18.651 15.8017 3 
24.4047 18.6597 15.7902 3 
27.2754 18.6594 12.9192 3 
28.7112 17.2243 14.3557 3 
25.8411 17.2226 14.3551 3 
25.8385 20.0961 14.353 3 
27.2749 18.6604 15.7905 3 
28.7105 20.0961 14.3552 3 
2.87053 22.9674 14.3564 3 
1.43488 21.5318 12.9205 3 
1.43542 24.4034 12.9204 3 
1.43446 21.5316 15.7914 3 
1.43499 24.4031 15.792 3 
5.74173 22.9677 14.3571 3 
4.30652 21.5316 12.9214 3 
7.17806 21.5316 12.9223 3 
4.30614 24.4031 12.9208 3 
7.17619 24.404 12.9207 3 
4.30606 21.5318 15.7923 3 
7.17746 21.5326 15.7937 3 
4.30569 24.4033 15.7924 3 
7.17547 24.405 15.7932 3 
11.4755 22.9768 14.3569 3 