ITEM: TIMESTEP
14040
ITEM: NUMBER OF ATOMS
2001
ITEM: BOX BOUNDS pp pp pp
0.0000000000000000e+00 2.8712000000000000e+01
0.0000000000000000e+00 2.8712000000000000e+01
0.0000000000000000e+00 2.8712000000000000e+01
ITEM: ATOMS x y z c_cna 
1.43596 1.43322 1.43507 3 
2.8713 2.86896 2.87051 3 
0.0015212 2.86957 2.86953 3 
2.87048 2.86878 0.000476741 3 
4.30591 1.43306 1.43591 3 
7.17611 1.4334 1.43638 3 
5.74117 2.86895 2.8712 3 
5.74046 2.86907 0.00126932 3 
10.0469 1.43386 1.43617 3 
8.61153 2.86935 2.87122 3 
11.4826 2.86976 2.8708 3 
8.61112 2.86944 0.00153138 3 
11.4825 2.86964 0.00126459 3 
12.9184 1.43419 1.4357 3 
15.7902 1.43437 1.43519 3 
14.3542 2.87007 2.87025 3 
14.3544 2.86971 0.000818566 3 
18.6623 1.43448 1.43469 3 
17.2262 2.87027 2.86973 3 
20.0984 2.87035 2.86922 3 
17.2264 2.86968 0.000328121 3 
21.5344 1.43449 1.43424 3 
24.4064 1.43435 1.43401 3 
22.9707 2.87036 2.86888 3 
27.2777 1.43385 1.43424 3 
25.8427 2.87014 2.86891 3 
1.43601 4.30457 1.43501 3 
1.43596 7.17552 1.43499 3 
2.87125 5.74007 2.87054 3 
2.87048 5.7401 0.000448663 3 
0.00128855 5.73999 2.86971 3 
4.30583 4.30453 1.43584 3 
7.17602 4.30467 1.4363 3 
4.30585 7.17573 1.43588 3 
7.17606 7.17568 1.43631 3 
5.74118 5.74014 2.87119 3 
5.74046 5.74021 0.00125484 3 
10.0469 4.30487 1.4362 3 
10.047 7.17544 1.4362 3 
8.61159 5.74015 2.87128 3 
11.4827 5.74015 2.871 3 
11.4826 5.74017 0.00124278 3 
8.61114 5.7402 0.00148166 3 
12.9184 4.30497 1.43579 3 
15.7903 4.30501 1.4353 3 
12.9185 7.17525 1.4358 3 
15.7904 7.17508 1.43531 3 
14.3544 5.74009 2.87055 3 
14.3545 5.74008 0.000812448 3 
18.6624 4.305 1.43486 3 
18.6625 7.17499 1.43489 3 
17.2263 5.74004 2.8701 3 
20.0985 5.73995 2.86968 3 
17.2265 5.74003 0.000351126 3 
24.4063 4.30486 1.43426 3 
21.5344 4.30495 1.43445 3 
21.5345 7.17494 1.43452 3 
22.9706 5.7399 2.86936 3 
24.4063 7.17496 1.43428 3 
27.2776 4.30474 1.43438 3 
27.2776 7.17518 1.43434 3 
25.8424 5.73993 2.8693 3 
1.43588 10.0468 1.43506 3 
2.87123 8.6111 2.87058 3 
2.87116 11.4825 2.87081 3 
0.001345 11.4818 2.86961 3 
0.00147941 8.61036 2.86952 3 
2.87042 11.4828 0.000516615 3 
2.87045 8.61138 0.000493635 3 
4.30587 10.0471 1.43598 3 
7.17617 10.0468 1.43638 3 
5.74119 8.61126 2.87128 3 
5.74135 11.4826 2.87147 3 
5.74067 11.4826 0.00127608 3 
5.74048 8.61126 0.00128282 3 
10.0471 10.0464 1.43613 3 
8.6116 8.61095 2.87122 3 
11.4827 8.61047 2.8708 3 
8.61184 11.4822 2.87136 3 
11.4827 11.4815 2.87072 3 
8.61118 8.61093 0.0015075 3 
11.4826 8.61059 0.00125382 3 
8.61139 11.4821 0.00152213 3 
11.4828 11.4817 0.00124939 3 
12.9186 10.046 1.43569 3 
15.7905 10.0457 1.43521 3 
14.3543 8.61007 2.87025 3 
14.3543 11.4809 2.8701 3 
14.3545 8.61045 0.000836855 3 
14.3547 11.4815 0.000842747 3 
18.6625 10.0455 1.43474 3 
17.2263 8.60976 2.86976 3 
20.0986 8.60957 2.86931 3 
17.2264 11.4805 2.86954 3 
20.0987 11.4802 2.86898 3 
17.2266 11.4815 0.000393289 3 
17.2266 8.61034 0.000373911 3 
21.5346 10.0454 1.43433 3 
24.4065 10.0456 1.43405 3 
22.9708 8.6095 2.86896 3 
22.9713 11.48 2.86849 3 
27.2777 10.0461 1.43421 3 
25.8427 8.60971 2.86891 3 
25.8431 11.4806 2.86853 3 
1.43572 12.9183 1.43524 3 
1.43564 15.7895 1.4354 3 
2.87113 14.3539 2.87111 3 
0.00100433 14.3535 2.86998 3 
2.87044 14.3541 0.000535316 3 
4.30598 12.9184 1.43614 3 
7.17654 12.9182 1.43649 3 
4.30616 15.7895 1.43627 3 
7.17696 15.7895 1.43664 3 
5.74165 14.354 2.87177 3 
5.74095 14.3539 0.00125896 3 
10.0475 12.9178 1.43628 3 
10.0482 15.7893 1.43656 3 
8.61241 14.3538 2.87173 3 
11.4834 14.3533 2.87129 3 
8.61194 14.3537 0.00146815 3 
11.4833 14.3533 0.00125028 3 
12.9189 12.9174 1.43588 3 
15.7906 12.9171 1.43544 3 
12.9195 15.7891 1.43635 3 
15.791 15.7888 1.43604 3 
14.3548 14.3528 2.87084 3 
14.3549 14.3531 0.000860461 3 
18.6625 12.9169 1.435 3 
18.6625 15.7886 1.43558 3 
17.2266 14.3522 2.87039 3 
20.0989 14.3519 2.8697 3 
17.2266 14.3531 0.00045055 3 
20.0982 14.3532 7.90112e-05 3 
21.5346 12.9169 1.43453 3 
24.4063 12.9171 1.43421 3 
21.5342 15.7887 1.43505 3 
22.9713 14.352 2.86899 3 
24.4057 15.7891 1.43465 3 
27.2773 12.9178 1.43444 3 
27.2769 15.7894 1.43467 3 
25.8425 14.3529 2.86911 3 
1.43563 18.6605 1.43547 3 
2.87121 17.225 2.87132 3 
2.87127 20.0959 2.87135 3 
0.000807786 17.2249 2.87022 3 
0.000770841 20.096 2.87028 3 
2.87056 20.0959 0.000599409 3 
2.87048 17.2251 0.00058386 3 
4.3063 18.6604 1.43638 3 
7.17725 18.6604 1.4368 3 
5.74193 17.225 2.87202 3 
5.7421 20.0958 2.8721 3 
5.74133 20.0958 0.00136263 3 
5.74121 17.225 0.00131975 3 
10.0485 18.6603 1.43673 3 
8.61291 17.2249 2.87209 3 
11.4842 17.2248 2.87193 3 
8.61312 20.0958 2.87221 3 
11.4844 20.0959 2.87212 3 
8.61256 20.0958 0.00154105 3 
8.6124 17.2248 0.00149133 3 
11.4839 17.2247 0.00127342 3 
11.4841 20.0958 0.00126035 3 
12.9201 18.6604 1.43664 3 
15.7914 18.6604 1.43652 3 
14.3557 17.2247 2.87193 3 
14.3562 20.096 2.87233 3 
14.3553 17.2246 0.000922934 3 
14.3555 20.0959 0.000891804 3 
18.6624 18.6602 1.43607 3 
17.2272 17.2242 2.87168 3 
20.0987 17.224 2.87088 3 
17.2275 20.0961 2.87237 3 
20.0982 20.0961 2.87136 3 
17.2265 17.2246 0.000514016 3 
20.0974 20.0961 9.64002e-05 3 
17.2264 20.0961 0.000489591 3 
20.0977 17.2248 0.000135399 3 
21.5335 18.6604 1.4354 3 
24.4052 18.6605 1.43482 3 
22.9702 17.2245 2.86994 3 
22.9698 20.0961 2.8702 3 
27.2767 18.6605 1.43478 3 
25.8419 17.2248 2.86955 3 
25.8417 20.096 2.86962 3 
1.43566 21.5314 1.43545 3 
1.43572 24.4023 1.43536 3 
2.8713 22.9668 2.87123 3 
2.87058 22.9667 0.000596529 3 
0.000862522 22.967 2.87013 3 
5.74128 22.9667 0.00135144 3 
4.30634 21.5313 1.43639 3 
7.17728 21.5312 1.43678 3 
5.74204 22.9667 2.87196 3 
4.30628 24.4022 1.43624 3 
7.17701 24.4024 1.43664 3 
10.0485 21.5313 1.43669 3 
8.61291 22.9668 2.87204 3 
11.484 22.967 2.87185 3 
10.048 24.4026 1.43653 3 
8.61236 22.9669 0.00152588 3 
11.4837 22.9671 0.00122894 3 
12.92 21.5315 1.43659 3 
15.7913 21.5317 1.43649 3 
15.7907 24.4032 1.436 3 
14.3555 22.9672 2.8719 3 
12.9193 24.4028 1.43628 3 
14.3551 22.9673 0.000858858 3 
18.6623 21.5319 1.43604 3 
18.6623 24.4035 1.43555 3 
17.227 22.9679 2.87166 3 
20.0986 22.9682 2.87084 3 
20.0976 22.9674 5.58614e-05 3 
17.2263 22.9675 0.000466399 3 
21.5335 21.5318 1.43536 3 
24.4052 21.5316 1.43477 3 
21.534 24.4034 1.43495 3 
22.9702 22.9676 2.86985 3 
24.4056 24.403 1.43452 3 
27.2767 21.5315 1.43474 3 
27.277 24.4026 1.43462 3 
25.8419 22.9673 2.86945 3 
0.00148535 28.7101 2.86958 3 
2.87132 28.7094 2.87072 3 
1.43585 27.2737 1.43523 3 
2.87132 25.8379 2.87101 3 
0.00110799 25.8384 2.86988 3 
2.8705 28.7093 0.000521756 3 
2.87052 25.8379 0.000555736 3 
5.74139 28.7094 2.87138 3 
5.74068 28.7095 0.00129229 3 
4.30607 27.2735 1.43608 3 
7.17654 27.2738 1.43648 3 
5.74175 25.8379 2.8717 3 
5.741 25.838 0.00130893 3 
8.61176 28.7099 2.87134 3 
11.4826 28.7106 2.87075 3 
8.61182 25.8383 0.00148601 3 
10.0474 27.2742 1.4363 3 
8.61238 25.8383 2.8717 3 
11.4832 25.8387 2.87126 3 
11.4831 25.8387 0.00125213 3 
11.4826 28.7104 0.00128995 3 
8.61126 28.7101 0.00156945 3 
14.354 28.7112 2.87014 3 
12.9186 27.2746 1.43588 3 
15.7903 27.2749 1.43543 3 
14.3545 25.8393 2.87084 3 
14.3546 25.8389 0.00084147 3 
14.3544 28.7105 0.000834379 3 
17.2263 28.7105 0.000363769 3 
17.2261 28.7116 2.86952 3 
20.0985 28.7118 2.86889 3 
18.6622 27.2751 1.43495 3 
17.2263 25.8398 2.87037 3 
20.0987 25.8402 2.86965 3 
17.2263 25.8389 0.000414793 3 
20.098 25.8389 2.37444e-06 3 
22.9711 28.7119 2.86838 3 
21.5344 27.2751 1.43441 3 
22.9712 25.8401 2.86888 3 
24.4063 27.2749 1.4341 3 
25.8431 28.7114 2.86848 3 
27.2774 27.2742 1.4344 3 
25.8425 25.8391 2.86901 3 
1.43685 1.43387 4.30528 3 
1.43706 1.43428 7.1765 3 
2.87163 2.86926 5.74123 3 
0.00215825 2.87013 5.74032 3 
4.3064 1.43331 4.3062 3 
7.17649 1.43358 4.30649 3 
4.30633 1.43374 7.17707 3 
7.17612 1.43436 7.17693 3 
5.74128 2.86925 5.7416 3 
10.0469 1.43442 4.30599 3 
10.0469 1.43513 7.1769 3 
8.61174 2.86967 5.74169 3 
11.4825 2.87036 5.74127 3 
11.4818 0.00014721 5.74048 3 
12.9179 1.43523 4.30524 3 
15.7898 1.43578 4.30454 3 
12.9177 1.43628 7.17608 3 
15.7897 1.43691 7.17528 3 
14.3541 2.87082 5.74072 3 
14.353 0.00151107 5.73919 3 
18.6622 1.43615 4.30381 3 
18.6625 1.43738 7.17441 3 
17.2262 2.87108 5.74013 3 
20.0987 2.87129 5.73953 3 
20.0992 0.00318896 5.73705 3 
17.2256 0.00240628 5.73815 3 
21.5351 1.43643 4.3032 3 
24.4079 1.43634 4.30296 3 
21.5361 1.43801 7.17356 3 
24.4095 1.4381 7.17344 3 
22.9715 2.87148 5.73911 3 
22.9734 0.00361947 5.73626 3 
27.2793 1.4354 4.30373 3 
27.28 1.43631 7.17503 3 
25.8437 2.87121 5.73926 3 
25.8459 0.00244379 5.73699 3 
1.43661 7.17519 4.30545 3 
1.43667 4.3048 4.3054 3 
1.43675 4.30489 7.17667 3 
1.43671 7.17497 7.17671 3 
2.87155 5.74 5.74129 3 
0.00170613 5.73993 5.74067 3 
7.17645 4.30469 4.30644 3 
4.30631 4.30459 4.30612 3 
4.30631 7.17556 4.30616 3 
7.17645 7.17551 4.30646 3 
4.30631 4.3047 7.17704 3 
4.30624 7.1753 7.17708 3 
7.1764 4.30491 7.17718 3 
5.74133 5.74007 5.74166 3 
7.17637 7.17518 7.1772 3 
10.0471 4.305 4.30629 3 
10.0471 7.17528 4.30629 3 
10.0473 4.30519 7.17729 3 
8.61185 5.74011 5.74182 3 
10.0473 7.17501 7.17728 3 
11.4829 5.74012 5.74164 3 
15.7902 4.30536 4.30541 3 
12.9184 4.30523 4.30588 3 
12.9185 7.17498 4.30588 3 
15.7903 7.17476 4.30545 3 
12.9186 4.30544 7.17708 3 
15.7904 4.30553 7.17671 3 
12.9187 7.17478 7.17707 3 
14.3544 5.7401 5.74129 3 
15.7905 7.17458 7.1767 3 
18.6624 4.3054 4.30493 3 
18.6624 7.17456 4.30497 3 
18.6626 4.30553 7.17624 3 
17.2264 5.74 5.74088 3 
18.6626 7.17438 7.17628 3 
20.0986 5.73994 5.74044 3 
21.5347 4.30543 4.30453 3 
24.4069 4.30541 4.30431 3 
21.5347 7.17441 4.30456 3 
24.4069 7.17439 4.30435 3 
21.535 4.3056 7.1758 3 
21.5351 7.17417 7.17582 3 
22.9709 5.73989 5.74013 3 
24.4073 7.17407 7.17566 3 
24.4074 4.30568 7.17562 3 
27.2784 4.3052 4.30461 3 
27.2784 7.17466 4.30463 3 
27.2787 4.30539 7.17604 3 
25.8429 5.73987 5.74012 3 
27.2786 7.17438 7.17609 3 
1.4367 10.0461 4.30537 3 
1.43685 10.0456 7.17661 3 
2.87153 8.61074 5.74134 3 
2.87147 11.482 5.74148 3 
0.00239336 11.4806 5.73995 3 
0.00204504 8.60973 5.74039 3 
4.3063 10.0467 4.30631 3 
7.17649 10.0466 4.30655 3 
4.30617 10.0463 7.17714 3 
5.74125 8.61086 5.7417 3 
7.17604 10.0457 7.17699 3 
5.74131 11.4822 5.7419 3 
10.047 10.0458 4.30601 3 
8.61172 8.61051 5.74171 3 
10.047 10.045 7.17689 3 
11.4826 8.60985 5.74125 3 
8.61177 11.4815 5.74177 3 
11.4819 11.48 5.74051 3 
12.9181 10.045 4.30522 3 
15.79 10.0443 4.30451 3 
12.9178 10.0439 7.17607 3 
14.3542 8.60936 5.74071 3 
15.7898 10.0432 7.17526 3 
14.3532 11.4786 5.73919 3 
18.6624 10.0438 4.30387 3 
17.2263 8.60894 5.74018 3 
18.6627 10.0426 7.17443 3 
20.0988 8.60859 5.7396 3 
17.2258 11.4776 5.73816 3 
20.0994 11.4768 5.7371 3 
21.5352 10.0435 4.30329 3 
24.4079 10.0435 4.30303 3 
21.5362 10.0419 7.1736 3 
22.9715 8.60833 5.73916 3 
22.9735 11.4763 5.73633 3 
24.4094 10.0417 7.17353 3 
27.2792 10.0445 4.30377 3 
25.8437 8.6086 5.73933 3 
27.2799 10.0435 7.17512 3 
25.8459 11.4774 5.73709 3 
1.43644 12.9177 4.3057 3 
1.43624 15.7893 4.30608 3 
1.43667 12.9171 7.1767 3 
1.43626 15.789 7.17732 3 
2.87135 14.3536 5.74196 3 
0.00178097 14.3529 5.74054 3 
4.3064 12.9182 4.30666 3 
4.30655 15.7895 4.30705 3 
7.17685 12.9181 4.30693 3 
7.1774 15.7894 4.30746 3 
4.30623 12.9178 7.17752 3 
7.17631 12.9173 7.17731 3 
4.30644 15.7893 7.17809 3 
5.74166 14.3537 5.74244 3 
7.1771 15.7892 7.17814 3 
10.0473 12.9173 4.30631 3 
10.0482 15.7892 4.30715 3 
10.0471 12.9162 7.17702 3 
8.61248 14.3533 5.7425 3 
10.0484 15.7887 7.17834 3 
11.4825 14.3521 5.7412 3 
12.9181 12.9162 4.30529 3 
15.79 12.9153 4.30444 3 
12.9192 15.7887 4.30654 3 
15.7908 15.7878 4.30612 3 
12.916 12.913 7.17422 3 
15.788 12.9108 7.17196 3 
12.9172 15.7866 7.17565 3 
14.3533 14.3504 5.73953 3 
15.7886 15.7838 7.17317 3 
18.6627 12.9146 4.30367 3 
18.6633 15.7869 4.3054 3 
18.6627 12.9091 7.17016 3 
17.2261 14.3489 5.73837 3 
18.6647 15.7808 7.17121 3 
20.1008 14.3476 5.73684 3 
21.5361 12.9141 4.30272 3 
21.5363 15.7866 4.30407 3 
24.4077 15.7882 4.30375 3 
24.409 12.9144 4.30231 3 
21.5394 12.9074 7.16818 3 
24.4146 12.9082 7.16832 3 
21.5438 15.7793 7.16764 3 
22.9757 14.3475 5.73541 3 
24.4115 15.7865 7.17136 3 
27.279 12.9165 4.30396 3 
27.2784 15.7889 4.30455 3 
27.2805 12.9145 7.17402 3 
25.8451 14.3512 5.73786 3 
27.2791 15.7882 7.17526 3 
1.43624 18.6605 4.3063 3 
1.43613 18.6604 7.17773 3 
2.87138 17.2249 5.74239 3 
2.87147 20.0959 5.74251 3 
0.00132944 20.096 5.74124 3 
0.00139955 17.2248 5.74108 3 
4.30672 18.6605 4.30726 3 
7.17776 18.6604 4.30776 3 
4.30665 18.6605 7.17847 3 
5.74202 17.225 5.74292 3 
7.17762 18.6604 7.17864 3 
5.74223 20.0959 5.74304 3 
10.0487 18.6604 4.30761 3 
8.61327 17.2249 5.74329 3 
10.0495 18.6604 7.17941 3 
11.4839 17.2246 5.74262 3 
8.61359 20.0959 5.74353 3 
11.4844 20.0959 5.74307 3 
12.9202 18.6604 4.30752 3 
15.7923 18.6603 4.30803 3 
12.9195 18.6602 7.17805 3 
14.3553 17.2241 5.74204 3 
15.7927 18.6596 7.17817 3 
14.3564 20.096 5.74326 3 
18.6637 18.6594 4.30741 3 
17.2278 17.2225 5.74171 3 
18.6673 18.6557 7.17762 3 
20.1015 17.2211 5.73997 3 
17.2298 20.0961 5.74432 3 
20.0992 20.0961 5.74231 3 
21.5347 18.6601 4.30577 3 
24.4068 18.6604 4.30441 3 
21.5368 18.6605 7.17498 3 
22.9727 17.2239 5.73871 3 
24.4099 18.6602 7.17291 3 
22.9718 20.0962 5.7394 3 
27.2781 18.6604 4.30486 3 
25.844 17.2243 5.7389 3 
27.2785 18.6604 7.17604 3 
25.8437 20.0961 5.73921 3 
1.43633 21.5315 4.30626 3 
1.43642 24.4026 4.306 3 
1.43623 21.5316 7.17771 3 
2.87154 22.9669 5.74231 3 
1.43647 24.4029 7.17723 3 
0.00150477 22.9673 5.74099 3 
4.3068 21.5313 4.30723 3 
7.17781 21.5313 4.30773 3 
7.17748 24.4024 4.30735 3 
4.30672 24.4023 4.30696 3 
4.30674 21.5314 7.17844 3 
7.17767 21.5314 7.17862 3 
4.30666 24.4025 7.17804 3 
5.74216 22.9668 5.74285 3 
7.17724 24.4027 7.17805 3 
10.0487 21.5313 4.30757 3 
10.0481 24.4027 4.30703 3 
10.0495 21.5314 7.17936 3 
8.61329 22.9669 5.74322 3 
10.0484 24.4032 7.17823 3 
11.4837 22.9672 5.74253 3 
12.9201 21.5315 4.30748 3 
15.7922 21.5318 4.30799 3 
12.919 24.4033 4.30649 3 
15.7906 24.4042 4.30614 3 
12.9194 21.5317 7.17802 3 
15.7926 21.5325 7.17815 3 
14.3551 22.9679 5.74202 3 
15.7884 24.4082 7.17317 3 
12.917 24.4054 7.17561 3 
18.6636 21.5327 4.30742 3 
18.6631 24.4052 4.30541 3 
18.6673 21.5365 7.17762 3 
17.2277 22.9697 5.74174 3 
18.6646 24.4113 7.17123 3 
20.1014 22.9711 5.73999 3 
24.4076 24.4039 4.30366 3 
21.5346 21.5322 4.30573 3 
24.4069 21.5318 4.30435 3 
21.5362 24.4055 4.30401 3 
21.5367 21.5318 7.17498 3 
21.5437 24.4129 7.16763 3 
22.9727 22.9683 5.73867 3 
24.4099 21.5321 7.17288 3 
24.4115 24.4057 7.1713 3 
27.2781 21.5316 4.30481 3 
27.2785 24.4031 4.30444 3 
27.2785 21.5318 7.17598 3 
25.844 22.9678 5.73882 3 
27.2792 24.4039 7.17516 3 
1.43667 27.2741 4.30557 3 
2.87169 28.7099 5.74137 3 
0.00257076 28.7113 5.73983 3 
1.43696 27.2748 7.17658 3 
2.87162 25.8382 5.74188 3 
0.00197695 25.839 5.74039 3 
4.30654 27.2737 4.30657 3 
7.17689 27.274 4.30685 3 
5.74143 28.7099 5.74182 3 
4.30651 27.2741 7.17742 3 
5.74184 25.8381 5.74236 3 
7.17643 27.2747 7.17725 3 
8.61175 28.7106 5.74171 3 
10.0472 27.2747 4.30627 3 
8.61249 25.8386 5.74238 3 
10.047 27.2759 7.17695 3 
11.4823 25.8398 5.74112 3 
12.9179 27.2758 4.30528 3 
15.7897 27.2767 4.30445 3 
12.9158 27.279 7.17418 3 
14.353 25.8416 5.73954 3 
15.7877 27.2813 7.17194 3 
18.6624 27.2774 4.30361 3 
17.2259 25.8431 5.73838 3 
18.6625 27.283 7.17014 3 
20.1006 25.8445 5.73683 3 
21.5359 27.278 4.30262 3 
24.4089 27.2775 4.30221 3 
21.5393 27.2846 7.16815 3 
22.9756 25.8446 5.73532 3 
24.4146 27.2838 7.16825 3 
27.2791 27.2754 4.30385 3 
25.8451 25.8408 5.73774 3 
27.2807 27.2775 7.17389 3 
2.87144 2.86947 8.61264 3 
0.00212076 2.87031 8.61217 3 
1.43675 1.43443 10.0484 3 
2.87105 2.86957 11.4845 3 
0.00172489 2.87024 11.4845 3 
5.74098 2.86967 8.61268 3 
4.3059 1.43407 10.0485 3 
7.17539 1.43516 10.0481 3 
5.74042 2.87002 11.4843 3 
8.61135 2.87029 8.61264 3 
11.4827 2.87073 8.61279 3 
11.4821 0.00107703 8.6121 3 
8.6106 0.000103261 8.61183 3 
11.4805 0.00277533 11.4829 3 
10.0461 1.43623 10.0479 3 
8.61082 2.87078 11.4842 3 
11.4824 2.87096 11.4845 3 
8.60931 0.00142414 11.4832 3 
14.3543 2.87099 8.61244 3 
14.3527 0.00284835 8.61052 3 
12.9182 1.43645 10.0483 3 
15.7902 1.43654 10.0477 3 
14.3546 2.87064 11.4847 3 
14.354 0.00224445 11.4841 3 
17.2265 2.87103 8.61192 3 
20.0991 2.87125 8.61132 3 
17.2258 0.00364745 8.60923 3 
20.1005 0.00486441 8.60775 3 
20.1014 0.00307257 11.4815 3 
18.6631 1.43664 10.0469 3 
17.2268 2.87029 11.4843 3 
20.0992 2.8705 11.4838 3 
17.2267 0.00194474 11.4828 3 
22.972 2.87168 8.61094 3 
22.9752 0.00474851 11.4823 3 
21.5368 1.43761 10.0462 3 
24.4094 1.4379 10.0467 3 
22.9717 2.87112 11.4838 3 
22.976 0.00607568 8.60691 3 
25.8439 2.87144 8.6114 3 
27.2798 1.43632 10.0477 3 
25.8434 2.87116 11.4842 3 
25.8467 0.0035753 8.60938 3 
25.8459 0.00304816 11.4836 3 
2.87135 5.73995 8.61272 3 
1.43648 4.30491 10.0485 3 
1.43639 7.17493 10.0486 3 
2.87092 5.73997 11.4845 3 
0.00121907 5.73989 11.4845 3 
0.00161089 5.7399 8.61243 3 
5.74111 5.74002 8.61281 3 
4.30587 7.17515 10.0486 3 
4.30595 4.30483 10.0486 3 
7.17602 4.30518 10.0485 3 
7.17598 7.17496 10.0486 3 
5.74067 5.74006 11.4845 3 
8.6117 5.74009 8.61295 3 
11.4831 5.7401 8.6131 3 
10.0471 4.30541 10.0487 3 
10.0471 7.17477 10.0487 3 
8.61139 5.7401 11.4846 3 
11.483 5.74008 11.4848 3 
14.3548 5.74007 8.61296 3 
15.7907 4.30529 10.0487 3 
12.9189 4.30543 10.0489 3 
12.9189 7.1747 10.0489 3 
15.7908 7.17472 10.0487 3 
14.3549 5.74 11.4849 3 
17.2267 5.73998 8.61262 3 
20.0988 5.7399 8.61221 3 
18.6628 4.30524 10.0483 3 
18.6629 7.17459 10.0483 3 
17.2268 5.73994 11.4847 3 
20.0988 5.73984 11.4843 3 
22.9711 5.73986 8.61192 3 
21.5351 4.30537 10.0479 3 
21.5351 7.17435 10.0479 3 
22.9708 5.7398 11.4842 3 
24.4072 7.17413 10.048 3 
24.4072 4.30555 10.048 3 
25.8429 5.73986 8.61205 3 
27.2785 4.30536 10.0483 3 
27.2784 7.17438 10.0483 3 
25.8425 5.73984 11.4844 3 
2.8713 8.61047 8.61271 3 
2.87123 11.4817 8.6128 3 
0.00234711 11.4801 8.61182 3 
1.43649 10.0455 10.0485 3 
2.87083 8.6104 11.4845 3 
2.87075 11.4815 11.4845 3 
0.00198507 8.60948 8.61225 3 
0.00150143 8.60959 11.4845 3 
0.00175034 11.4802 11.4843 3 
5.74084 8.61036 8.61271 3 
5.74074 11.4815 8.61273 3 
4.30568 10.0459 10.0486 3 
7.17526 10.0449 10.0481 3 
5.74028 8.61006 11.4843 3 
5.74012 11.4809 11.4842 3 
8.61134 8.60982 8.61259 3 
11.4828 8.60947 8.61276 3 
8.61054 11.4799 8.61186 3 
11.4822 11.479 8.61211 3 
10.0461 10.0439 10.0478 3 
8.61078 8.60935 11.4842 3 
11.4825 8.60917 11.4844 3 
8.60925 11.4786 11.4831 3 
11.4806 11.4772 11.4828 3 
14.3545 8.60917 8.61245 3 
14.3529 11.4772 8.61053 3 
12.9183 10.0437 10.0483 3 
15.7904 10.0435 10.0477 3 
14.3547 8.60939 11.4847 3 
14.3542 11.4778 11.4841 3 
17.2266 8.60897 8.61196 3 
20.0992 8.60859 8.61134 3 
17.226 11.4764 8.60925 3 
20.1006 11.4751 8.60776 3 
18.6633 10.0433 10.0469 3 
17.2269 8.60961 11.4843 3 
20.0993 8.6093 11.4838 3 
17.2269 11.4781 11.4828 3 
20.1015 11.4769 11.4815 3 
22.972 8.60809 8.61098 3 
22.976 11.4739 8.60693 3 
21.5368 10.0423 10.0462 3 
22.9716 8.60856 11.4838 3 
22.9751 11.4752 11.4824 3 
24.4093 10.0419 10.0468 3 
25.8438 8.60834 8.61146 3 
25.8465 11.4763 8.60948 3 
27.2796 10.0435 10.0478 3 
25.8433 8.60859 11.4842 3 
25.8456 11.4769 11.4836 3 
2.87115 14.3533 8.61322 3 
1.43626 12.9169 10.0485 3 
1.43578 15.7887 10.0488 3 
2.87073 14.3532 11.4848 3 
0.00182723 14.352 8.61173 3 
0.00101253 14.352 11.4841 3 
5.74124 14.3533 8.61334 3 
4.30581 12.9174 10.0488 3 
7.1753 12.9162 10.048 3 
4.30622 15.7891 10.0494 3 
7.17653 15.7887 10.049 3 
5.74079 14.3528 11.4846 3 
8.61123 14.3521 8.61239 3 
11.4827 14.3507 8.61257 3 
10.0443 12.9131 10.0459 3 
10.0458 15.7866 10.047 3 
8.60959 14.3505 11.4831 3 
11.476 14.3438 11.4782 3 
14.3483 14.3438 8.60588 3 
12.9177 12.9125 10.0476 3 
15.788 12.9097 10.0444 3 
12.9198 15.7856 10.0497 3 
15.7762 15.7684 10.0317 3 
14.3547 14.3458 11.4846 3 
17.2229 14.3397 8.60162 3 
20.1046 14.3355 8.59745 3 
18.6641 12.9082 10.0421 3 
18.6638 15.7572 10.0225 3 
17.2242 14.3418 11.4763 3 
20.1114 14.3363 11.4715 3 
22.9882 14.3337 8.59467 3 
21.5433 12.9048 10.0396 3 
21.5743 15.7456 10.0085 3 
22.9853 14.3356 11.4783 3 
24.4146 12.9075 10.0435 3 
24.415 15.7794 10.0391 3 
25.8474 14.3476 8.60722 3 
27.28 12.9142 10.0469 3 
27.2787 15.7867 10.0466 3 
25.8458 14.3478 11.4822 3 
2.87113 17.2249 8.61378 3 
2.8712 20.096 8.614 3 
0.000723323 20.096 8.61307 3 
0.000911589 17.2245 8.61268 3 
1.4355 18.6603 10.0493 3 
2.87075 17.2247 11.4852 3 
2.87088 20.096 11.4854 3 
5.74184 17.2249 8.61405 3 
5.74212 20.0959 8.61433 3 
4.30654 18.6604 10.0499 3 
7.17753 18.6604 10.05 3 
5.74187 17.2248 11.4856 3 
5.74235 20.0959 11.486 3 
8.61262 17.2246 8.61373 3 
11.4852 17.2243 8.61508 3 
8.61318 20.0959 8.61424 3 
11.4864 20.0959 8.61625 3 
10.0482 18.6602 10.0493 3 
8.61212 17.2241 11.4851 3 
11.479 17.2201 11.4806 3 
8.61338 20.0959 11.4863 3 
11.4827 20.0959 11.4845 3 
14.3508 17.2201 8.60889 3 
14.3547 20.096 8.61258 3 
12.9246 18.6607 10.0544 3 
15.7813 18.6508 10.0379 3 
14.3627 17.2227 11.4926 3 
14.3724 20.096 11.5023 3 
17.2269 17.2151 8.6055 3 
20.1136 17.2083 8.6001 3 
17.2359 20.0961 8.61241 3 
20.0983 20.0961 8.61576 3 
18.6848 18.6294 10.0389 3 
17.1943 17.1794 11.4347 3 
20.196 17.1211 11.3869 3 
17.2311 20.0961 11.382 5 
20.0467 20.0962 11.5361 5 
22.9776 17.2244 8.60517 3 
22.9764 20.0962 8.60637 3 
21.5391 18.6708 10.0437 3 
22.9826 17.2084 11.4693 3 
22.967 20.0962 11.4846 3 
24.4078 18.6605 10.0461 3 
28.7119 17.224 11.4842 3 
25.844 17.2239 8.61017 3 
25.8434 20.0962 8.61107 3 
28.7115 20.0961 11.4846 3 
27.2771 18.6601 10.0481 3 
25.8428 17.2213 11.4813 3 
25.8405 20.0962 11.4836 3 
2.87131 22.9671 8.61374 3 
0.00106227 22.9676 8.61263 3 
7.54966e-05 22.9681 11.4842 3 
1.43559 21.5317 10.0493 3 
1.43605 24.4033 10.0487 3 
2.87097 22.9672 11.4851 3 
5.742 22.9669 8.614 3 
7.17666 24.4031 10.049 3 
4.30666 21.5314 10.0499 3 
7.17761 21.5314 10.05 3 
4.30648 24.4027 10.0494 3 
5.74205 22.9671 11.4855 3 
8.6127 22.9672 8.61369 3 
11.4851 22.9676 8.61502 3 
10.0457 24.4053 10.047 3 
10.0482 21.5316 10.0493 3 
8.6122 22.9677 11.4851 3 
11.479 22.9718 11.4806 3 
14.3506 22.9718 8.60884 3 
12.9245 21.5312 10.0544 3 
15.7812 21.5412 10.0379 3 
12.9197 24.4064 10.0496 3 
15.776 24.4237 10.0317 3 
14.3626 22.9692 11.4926 3 
17.2268 22.977 8.60554 3 
20.1135 22.9839 8.60011 3 
18.6848 21.5628 10.0389 3 
18.6637 24.435 10.0225 3 
20.1959 23.0712 11.3869 3 
17.1942 23.0127 11.4347 3 
22.9776 22.9679 8.60516 3 
24.4078 21.5318 10.0461 3 
21.5743 24.4467 10.0085 3 
24.4152 24.4128 10.039 3 
21.5391 21.5215 10.0437 3 
22.9827 22.9839 11.4693 3 
25.8442 22.9683 8.6101 3 
27.2789 24.4054 10.0465 3 
25.8429 22.971 11.4813 3 
27.2771 21.5321 10.0481 3 
2.87109 28.7104 11.4845 3 
0.0026018 28.7118 8.61171 3 
2.87151 28.7103 8.61273 3 
2.87145 25.8386 8.61313 3 
0.00209723 25.84 8.61162 3 
0.00135053 25.8401 11.484 3 
0.00210035 28.7117 11.4843 3 
2.87108 25.8388 11.4847 3 
1.43661 27.275 10.0484 3 
5.74094 28.7105 8.61268 3 
5.74146 25.8386 8.61326 3 
4.30612 27.2745 10.0487 3 
7.17548 27.2757 10.048 3 
5.74105 25.8391 11.4846 3 
5.74033 28.7111 11.4842 3 
8.61129 25.8398 8.61236 3 
11.4826 25.8413 8.61253 3 
10.0443 27.2789 10.0459 3 
8.60968 25.8415 11.4831 3 
11.4759 25.8482 11.4782 3 
14.3481 25.8482 8.60584 3 
12.9176 27.2795 10.0476 3 
15.7878 27.2824 10.0444 3 
14.3545 25.8462 11.4846 3 
17.2227 25.8524 8.6016 3 
20.1045 25.8566 8.59749 3 
20.1113 25.8558 11.4715 3 
18.664 27.2838 10.0422 3 
17.224 25.8503 11.4763 3 
22.9882 25.8585 8.59464 3 
22.9854 25.8565 11.4783 3 
24.4147 27.2845 10.0435 3 
21.5433 27.2872 10.0396 3 
25.8476 25.8445 8.60713 3 
25.8461 25.8444 11.4821 3 
27.2803 27.2778 10.0469 3 
1.43629 1.43434 12.9206 3 
1.43579 1.4342 15.7926 3 
0.00120245 2.87006 14.3567 3 
2.87054 2.86961 14.3565 3 
4.30541 1.43429 12.9204 3 
7.17465 1.43571 12.92 3 
5.73984 2.87029 14.3563 3 
4.30489 1.43444 15.7924 3 
7.17393 1.43617 15.7924 3 
10.0453 1.43685 12.9199 3 
8.61018 2.87113 14.3563 3 
8.60821 0.00232016 14.3558 3 
10.0444 1.43737 15.7927 3 
11.4819 2.87103 14.3567 3 
11.4792 0.0035712 14.356 3 
12.9176 1.43651 12.9204 3 
15.7905 1.43562 12.9206 3 
14.3542 2.87031 14.3569 3 
12.9168 1.43665 15.7933 3 
15.7897 1.43538 15.7933 3 
14.3527 0.00189275 14.3569 3 
18.6632 1.43536 12.9198 3 
17.2265 2.86987 14.3566 3 
18.6624 1.43553 15.7925 3 
17.2264 0.000598052 14.3566 3 
20.0987 2.87017 14.3563 3 
20.1002 0.00184791 14.3563 3 
21.5361 1.43653 12.9198 3 
24.4086 1.43718 12.9204 3 
21.5353 1.43632 15.7928 3 
22.9711 2.87077 14.3565 3 
22.9738 0.00345135 14.3571 3 
24.4078 1.4366 15.7933 3 
27.2792 1.43597 12.9206 3 
25.8429 2.87083 14.3568 3 
27.2785 1.43549 15.7931 3 
25.8449 0.00217936 14.3572 3 
1.43601 4.30494 12.9206 3 
1.43589 7.17499 12.9206 3 
1.43554 4.30492 15.7926 3 
1.43534 7.17511 15.7926 3 
2.87039 5.74006 14.3565 3 
0.000715693 5.73993 14.3566 3 
4.30544 4.30499 12.9204 3 
7.17552 4.30539 12.9204 3 
4.30535 7.17512 12.9204 3 
7.17548 7.17481 12.9204 3 
7.17497 4.30556 15.7925 3 
4.30491 4.30511 15.7925 3 
4.30481 7.17517 15.7924 3 
7.17497 7.17472 15.7924 3 
5.74013 5.74013 14.3564 3 
10.0468 4.30554 12.9206 3 
10.0468 7.17465 12.9205 3 
10.0463 4.30563 15.7927 3 
10.0463 7.17454 15.7927 3 
11.4827 5.74006 14.3568 3 
8.61095 5.74011 14.3565 3 
12.9187 4.30531 12.9209 3 
15.7907 4.30501 12.9208 3 
12.9188 7.17475 12.9208 3 
15.7908 7.17488 12.9208 3 
12.9183 4.30529 15.7929 3 
15.7903 4.30491 15.7928 3 
12.9184 7.17474 15.7929 3 
15.7904 7.17496 15.7927 3 
14.3546 5.73999 14.3569 3 
18.6627 4.30488 12.9204 3 
18.6627 7.17487 12.9204 3 
20.0985 5.73983 14.3563 3 
17.2266 5.73989 14.3566 3 
18.6623 4.30491 15.7924 3 
18.6624 7.17482 15.7923 3 
21.5348 4.30509 12.9202 3 
24.4068 4.30535 12.9204 3 
21.5348 7.17455 12.9202 3 
24.4067 7.17431 12.9204 3 
21.5344 4.30508 15.7923 3 
21.5344 7.17457 15.7923 3 
24.4062 7.17447 15.7925 3 
24.4063 4.30526 15.7926 3 
22.9704 5.7398 14.3563 3 
27.278 4.30524 12.9206 3 
27.2779 7.1745 12.9206 3 
27.2775 4.30514 15.7927 3 
27.2774 7.17471 15.7927 3 
25.842 5.73987 14.3566 3 
1.43594 10.0456 12.9205 3 
2.87025 11.4816 14.3564 3 
1.43542 10.0458 15.7926 3 
2.87027 8.61044 14.3565 3 
0.000938084 8.60982 14.3567 3 
0.00108352 11.4806 14.3567 3 
4.30514 10.0458 12.9203 3 
7.17454 10.0444 12.9199 3 
5.7395 11.4806 14.3562 3 
4.30462 10.0457 15.7923 3 
7.17383 10.044 15.7923 3 
5.73972 8.6099 14.3563 3 
10.0453 10.0432 12.9198 3 
11.482 8.60906 14.3566 3 
10.0445 10.0427 15.7926 3 
11.4793 11.4765 14.3559 3 
8.60816 11.4777 14.3557 3 
8.6102 8.60907 14.3563 3 
12.9178 10.0435 12.9203 3 
15.7907 10.0443 12.9206 3 
14.3544 8.60966 14.3569 3 
12.917 10.0434 15.7932 3 
15.7899 10.0446 15.7932 3 
14.3529 11.4781 14.3568 3 
17.2266 8.60996 14.3566 3 
18.6633 10.0445 12.9198 3 
18.6626 10.0443 15.7924 3 
17.2266 11.4794 14.3565 3 
20.0988 8.60957 14.3562 3 
20.1003 11.4781 14.3562 3 
21.5361 10.0433 12.9198 3 
24.4084 10.0427 12.9203 3 
22.9736 11.4765 14.3571 3 
22.971 8.60893 14.3564 3 
21.5354 10.0435 15.7927 3 
24.4076 10.0433 15.7932 3 
27.2789 10.0439 12.9206 3 
25.8427 8.60893 14.3567 3 
25.8446 11.4778 14.3572 3 
27.2782 10.0444 15.793 3 
1.43568 12.9171 12.9205 3 
1.43516 15.7887 12.9204 3 
2.87029 14.3532 14.3564 3 
1.4352 12.9173 15.7924 3 
1.43474 15.789 15.7919 3 
0.000309305 14.3524 14.3564 3 
4.30535 12.9172 12.9204 3 
7.17446 12.9154 12.9198 3 
4.30594 15.7889 12.9208 3 
7.17616 15.7879 12.9206 3 
5.74034 14.3524 14.3564 3 
4.30488 12.9171 15.7923 3 
7.17361 12.9147 15.7925 3 
4.30555 15.7887 15.7923 3 
7.17545 15.7869 15.7931 3 
10.042 12.9108 12.9178 3 
10.0433 15.7838 12.9184 3 
8.6084 14.349 14.3559 3 
10.0402 12.9092 15.7925 3 
10.0413 15.7808 15.7946 3 
11.4717 14.3397 14.3527 3 
12.9145 12.9097 12.9179 3 
15.7907 12.9122 12.9206 3 
12.9018 15.7684 12.906 3 
15.7962 15.78 12.9261 3 
14.3464 14.3418 14.3541 3 
12.9123 12.9082 15.794 3 
15.7878 12.9115 15.7953 3 
12.8926 15.7572 15.7937 3 
15.7806 15.7535 15.8024 3 
18.6654 12.9115 12.9177 3 
18.6725 15.7536 12.9105 3 
18.6625 12.9123 15.7924 3 
18.6569 15.7801 15.7868 3 
20.1066 14.3419 14.3588 3 
17.2266 14.3485 14.3565 3 
21.5407 12.9083 12.9189 3 
21.5603 15.7573 12.9191 3 
24.4115 15.781 12.9182 3 
24.4126 12.9092 12.9203 3 
22.9812 14.3399 14.3601 3 
21.5386 12.9098 15.7951 3 
24.4108 12.911 15.7951 3 
21.5512 15.7686 15.8069 3 
24.4096 15.7841 15.7944 3 
27.279 12.9148 12.9203 3 
27.2773 15.787 12.9196 3 
25.8443 14.3492 14.3569 3 
27.2782 12.9156 15.7931 3 
27.2766 15.7881 15.7921 3 
1.43482 18.6603 12.9205 3 
2.87053 20.096 14.3564 3 
2.87039 17.2246 14.3564 3 
1.43443 18.6605 15.7914 3 
4.30649 18.6604 12.9213 3 
7.17808 18.6602 12.9222 3 
5.74247 20.0959 14.3575 3 
5.74169 17.2242 14.357 3 
4.30611 18.6602 15.7923 3 
7.17751 18.6593 15.7936 3 
10.0483 18.6595 12.9225 3 
11.4756 17.2151 14.3568 3 
8.61446 20.0959 14.3597 3 
11.4825 20.0959 14.3659 3 
10.0477 18.6556 15.7973 3 
8.61181 17.2224 14.3577 3 
12.908 18.6508 12.9111 3 
15.8277 18.6736 12.9576 5 
14.3047 17.1793 14.3242 3 
14.2521 20.096 14.3611 5 
12.909 18.6293 15.8148 3 
15.6404 18.2584 15.9425 5 
20.2007 20.0962 14.3519 5 
18.8125 18.2586 12.7703 5 
17.9754 20.0961 13.6073 5 
17.2265 17.2621 14.3564 5 
20.1482 17.1795 14.3887 3 
16.4774 20.0961 15.1057 5 
18.6252 18.6738 15.7553 5 
22.9704 20.0962 14.347 3 
21.5439 18.6296 12.8981 3 
24.4051 18.6558 12.9155 3 
21.545 18.651 15.8018 3 
24.4047 18.6598 15.7902 3 
22.9772 17.2153 14.356 3 
27.2754 18.6595 12.9192 3 
28.7111 17.2244 14.3557 3 
25.841 17.2226 14.3551 3 
25.8385 20.0962 14.3531 3 
27.2748 18.6605 15.7905 3 
28.7105 20.0961 14.3552 3 
2.87062 22.9674 14.3564 3 
1.43493 21.5318 12.9205 3 
1.43548 24.4033 12.9204 3 
1.43454 21.5317 15.7914 3 
1.43509 24.4031 15.792 3 
4.3066 21.5316 12.9213 3 
7.17816 21.5316 12.9222 3 
4.30621 24.403 12.9208 3 
7.17629 24.404 12.9206 3 
4.3062 21.5318 15.7923 3 
7.17757 21.5325 15.7936 3 
4.30581 24.4033 15.7924 3 
7.17557 24.405 15.7932 3 