ITEM: TIMESTEP
14000
ITEM: NUMBER OF ATOMS
2001
ITEM: BOX BOUNDS pp pp pp
0.0000000000000000e+00 2.8712000000000000e+01
0.0000000000000000e+00 2.8712000000000000e+01
0.0000000000000000e+00 2.8712000000000000e+01
ITEM: ATOMS x y z 
1.49381 1.46212 1.27699 
3.10004 2.87774 2.96626 
0.225233 2.74647 2.91224 
4.12172 1.31399 1.39 
7.22219 1.4445 1.55657 
5.63113 2.83616 2.9659 
5.58265 2.83585 0.0399444 
5.48783 0.0192676 2.96235 
5.64526 0.0885679 0.0550219 
10.0603 1.42301 1.30041 
8.65149 2.97739 2.91737 
11.6648 2.87298 3.0231 
8.46118 0.105224 3.0429 
11.3826 0.0823237 2.78342 
8.55131 2.92898 0.128916 
12.8479 1.46161 1.23205 
15.6776 1.42398 1.54146 
14.2577 2.96427 2.97651 
18.5534 1.36306 1.63772 
17.0687 2.9348 2.76637 
19.9068 2.86373 2.91709 
17.0186 0.156583 0.0349708 
17.2513 0.0571798 3.14149 
20.0099 0.0564364 2.89212 
21.3707 1.38549 1.25447 
24.3884 1.45138 1.36859 
22.9432 2.85704 2.87892 
22.8345 0.108301 2.97597 
28.6308 0.0838666 2.91371 
27.2737 1.6869 1.60389 
25.9388 2.84906 3.08914 
25.7374 0.0596461 2.86985 
25.8249 3.02047 0.203235 
25.9164 0.120099 0.0384366 
28.5089 0.131336 0.205716 
1.4633 4.31457 1.42046 
1.52763 7.28496 1.46362 
1.44821 7.33705 4.07469 
2.78806 5.75444 3.01291 
2.85434 5.78402 0.0538357 
0.176007 5.64914 2.98886 
0.176158 5.83418 0.0715221 
4.36111 4.34566 1.60871 
7.02327 4.45651 1.63644 
4.33952 7.22834 1.42486 
7.2766 7.29817 1.72872 
5.63761 5.82323 3.01531 
10.1329 4.12907 1.51567 
10.0183 7.23643 1.33685 
8.6616 5.80365 3.08109 
11.4316 5.62387 2.82015 
11.5367 5.63513 0.149301 
8.70256 5.87666 0.0621531 
12.9264 4.26451 1.36799 
15.6853 4.34112 1.35737 
12.9067 7.34503 1.54958 
15.8304 7.2134 1.63818 
14.4558 5.82798 2.88888 
18.6268 4.51616 1.37952 
18.5409 7.30048 1.54928 
17.2116 5.71275 2.82374 
19.9647 5.79176 2.81568 
17.0814 5.90914 0.0878592 
24.3013 4.37102 1.51401 
21.47 4.41932 1.57147 
21.3581 7.28373 1.59969 
22.954 5.78736 3.09113 
24.3453 7.12539 1.5549 
22.8695 5.66574 0.06332 
27.2915 4.33102 1.5805 
27.3184 7.03404 1.31459 
25.9064 5.59181 2.97512 
25.7613 5.66619 0.0886376 
1.48819 9.83955 1.23209 
2.94463 8.57014 2.85644 
2.8422 11.1086 2.96632 
0.00633816 11.2502 2.89318 
4.41329 9.96449 1.57591 
7.16889 10.0858 1.36006 
5.86724 8.67623 3.01625 
5.5653 11.4834 3.08637 
5.5557 11.571 0.0513884 
10.072 10.3261 1.30286 
8.58461 8.73802 2.92781 
11.4403 8.75028 2.7446 
8.56719 11.5018 2.78471 
11.3315 11.6733 2.81686 
8.5982 8.70795 0.0310841 
13.1508 10.1451 1.28904 
15.836 9.95776 1.3977 
14.4593 8.77862 2.82966 
14.3726 11.2152 2.93656 
14.5194 8.46492 0.0159888 
18.7399 9.95881 1.5379 
17.3235 8.61468 2.91363 
20.0768 8.8462 2.93767 
17.2032 11.2195 2.93817 
20.2717 11.3615 2.8699 
17.4004 11.4424 0.107657 
21.576 10.0908 1.46956 
24.3346 10.0215 1.47275 
23.0061 8.67814 2.91932 
23.05 11.4991 3.08869 
22.8774 8.70522 0.163215 
28.549 8.66672 2.65208 
27.2186 9.92528 1.13376 
25.9775 8.567 2.82819 
25.9048 11.3336 2.94026 
1.37876 12.7186 1.33856 
1.37711 15.7766 1.50155 
2.71698 13.9721 2.66658 
0.11805 14.1341 2.85833 
0.116479 14.0784 0.0882745 
4.22525 12.5903 1.44533 
7.11014 12.8578 1.36782 
4.22683 15.7631 1.59548 
7.05096 15.6215 1.56757 
5.49103 14.1763 2.8547 
10.0403 13.0206 1.36344 
10.0644 15.7772 1.24436 
8.57821 14.2147 2.81203 
11.4613 14.3573 2.78605 
13.037 12.8364 1.32725 
15.9041 12.783 1.57275 
12.9383 15.684 1.41493 
15.6021 15.7432 1.30481 
14.3691 14.3529 2.86089 
18.723 12.9954 1.30298 
18.7245 15.9094 1.54611 
17.2681 14.3331 2.70624 
20.1479 14.3143 2.76248 
21.4605 12.8664 1.4171 
24.3011 12.819 1.33413 
21.4855 15.8403 1.40228 
23.1133 14.0659 2.92555 
24.3806 15.7349 1.36482 
27.2571 12.6786 1.37077 
27.3514 15.7075 1.59638 
25.9122 14.2587 2.91857 
1.56521 18.5149 1.37328 
2.72359 17.2822 2.86256 
2.95653 20.2245 3.06161 
0.101194 17.1399 2.93899 
0.174575 19.8376 2.66246 
2.83373 20.1126 0.0817802 
4.31054 18.5308 1.63271 
7.2744 18.5606 1.38996 
5.81172 17.1609 2.93435 
5.70635 19.976 2.96803 
5.66429 19.9037 0.106017 
5.63371 17.1796 0.0510953 
10.1049 18.6745 1.48442 
8.65194 17.2116 2.9177 
11.4401 17.1393 2.89699 
8.56053 19.9345 2.87018 
11.4773 20.1411 2.97143 
8.65071 20.1311 0.0646724 
8.61026 17.1364 0.187652 
11.4827 17.3383 0.0201149 
11.31 19.9679 0.155276 
12.8277 18.5933 1.28814 
15.6511 18.8983 1.53563 
14.2447 17.358 2.84449 
14.2625 20.2479 2.87518 
14.3521 17.2874 0.0644739 
14.3954 20.0985 0.0306872 
18.488 18.6263 1.32203 
17.127 17.1818 2.69092 
20.0126 17.2662 2.83629 
17.3379 20.1815 2.70442 
19.9114 20.1812 2.81643 
21.4651 18.8416 1.38173 
24.4015 18.7132 1.27734 
21.5183 18.6301 4.03406 
23.0435 17.2462 2.89813 
24.4963 18.6143 4.09146 
22.9956 20.0596 2.68359 
27.2459 18.7742 1.28089 
26.0773 17.2986 2.6814 
25.8422 20.1986 2.71671 
25.759 17.2234 0.18424 
1.46271 21.4485 1.27976 
1.37824 24.271 1.2589 
2.91533 22.7227 2.81465 
2.96461 22.8077 0.047605 
5.79852 22.9773 0.110158 
4.47644 21.6492 1.49583 
7.18745 21.4956 1.60666 
5.89015 23.1073 2.93511 
4.33051 24.2192 1.6062 
7.10082 24.5622 1.40591 
10.0337 21.5527 1.55962 
8.84668 23.2386 3.02748 
11.3884 22.9019 2.86032 
10.1605 24.522 1.38232 
8.52947 22.7588 0.193424 
11.5917 23.1102 0.0345293 
12.7336 21.572 1.41029 
15.7686 21.5697 1.38163 
15.7228 24.399 1.47784 
14.2988 23.0474 2.83711 
13.0309 24.4421 1.28692 
14.2434 23.0254 0.0314999 
18.5909 21.591 1.37612 
18.4808 24.2921 1.43167 
17.0972 22.8931 2.9194 
20.0663 23.1536 2.96595 
21.6121 21.6245 1.35039 
24.4268 21.6775 1.36883 
21.4287 24.2811 1.32277 
22.8091 22.9217 2.93391 
24.3238 24.4505 4.08881 
24.3503 24.0829 1.39194 
28.6796 22.8915 2.72206 
27.359 21.4663 1.29729 
27.0643 24.3659 1.29118 
25.8931 22.8748 2.75657 
28.6379 22.9211 0.0219284 
2.83009 28.6179 2.83994 
1.34277 27.3331 1.33028 
2.87482 25.903 2.75834 
0.0432788 25.6826 2.86703 
4.14724 27.2426 1.52075 
7.03856 27.4302 1.52246 
5.7889 25.8507 2.89842 
5.52612 25.8018 0.124851 
8.69122 25.7811 0.129847 
9.93663 27.3345 1.5433 
8.61209 25.807 2.82146 
11.3559 26.0679 2.88788 
14.2249 28.7035 2.76943 
12.7742 27.2245 1.30965 
15.8281 27.3846 1.79751 
14.366 25.8355 2.9423 
14.3032 26.0371 0.0116634 
18.5296 27.3439 1.51935 
17.1623 25.8828 2.96903 
20.154 25.823 2.74214 
17.1386 25.8341 0.0648245 
21.3583 27.5668 1.38144 
22.8182 25.946 2.6701 
24.3528 27.3508 1.44315 
22.8634 25.8818 0.105802 
28.6566 25.9099 0.010705 
27.3135 27.2835 1.59848 
25.696 25.8977 2.71673 
1.50843 1.18916 4.30193 
1.3272 1.32424 7.10844 
2.9896 2.79229 5.85272 
0.0314364 2.74786 5.93455 
4.1829 1.39491 4.52436 
7.20945 1.61852 4.32583 
4.31081 1.4016 7.20142 
7.25839 1.50782 7.31824 
5.88084 2.98885 6.0178 
10.0965 1.42848 4.4134 
10.0255 1.43979 7.16556 
8.67061 2.87491 5.83158 
11.5026 2.76745 5.88561 
11.6276 0.101806 5.7864 
8.48322 0.252482 5.73993 
13.0205 1.42456 4.27207 
15.7062 1.39236 4.15477 
12.8613 1.5088 7.41572 
15.9237 1.43556 7.11435 
14.3496 2.89309 5.85028 
14.4122 0.0923479 6.02739 
18.6356 1.50701 4.37764 
18.7375 1.52749 7.02552 
17.0214 2.90994 5.69084 
20.026 3.04982 5.78313 
20.2173 0.0658501 5.95611 
21.3408 1.67836 4.55466 
24.3668 1.53595 4.34454 
21.6098 1.51684 7.31975 
24.5724 1.3067 7.11913 
22.8612 2.81804 5.9105 
22.8843 0.0837656 5.83016 
27.3584 1.34954 4.48643 
27.5045 1.17178 7.17823 
25.8321 2.88786 5.93312 
1.54472 4.16498 4.34793 
1.56375 4.27515 7.18549 
1.44109 7.11229 7.45245 
2.81017 5.76105 5.71634 
0.129675 5.78234 5.72863 
7.25573 4.19401 4.37902 
4.46174 4.28056 4.45501 
4.36682 7.01159 4.44905 
7.33396 7.14244 4.68325 
4.27209 4.38539 7.21307 
4.39506 7.21565 7.23711 
7.22329 4.23932 7.43364 
5.77025 5.60252 5.88046 
7.09606 6.97438 7.19166 
10.1445 4.19863 4.43364 
10.2161 7.12763 4.14623 
10.1928 4.57433 7.22874 
8.72056 5.55143 5.74378 
9.97983 7.1506 7.25372 
11.5756 5.9043 5.78501 
15.8353 4.27175 4.38321 
13.0724 4.35738 4.51369 
12.8205 7.1789 4.22127 
15.7753 7.30835 4.1736 
12.9249 4.27968 7.23125 
15.9306 4.32588 7.09129 
12.8369 7.11256 7.27204 
14.5952 5.83273 5.86853 
15.9288 7.19423 7.28693 
18.476 4.46066 4.28505 
18.7465 7.14209 4.33694 
18.6632 4.30477 7.14604 
17.0955 5.93775 5.59628 
18.7475 7.2512 7.22266 
19.9908 5.66927 5.76294 
21.4526 4.25984 4.10869 
24.3019 4.18356 4.51355 
21.3834 7.19705 4.37209 
24.4146 7.16122 4.27761 
21.4873 4.51294 7.17552 
21.6427 7.24326 7.27815 
22.9987 5.73854 5.59264 
24.2765 7.13817 7.1407 
24.427 4.12636 7.29994 
27.3502 4.15971 4.42425 
27.435 6.9921 4.37966 
27.2211 4.39561 7.07668 
25.7934 5.83292 5.77628 
27.2345 7.2041 7.37648 
1.44029 9.87638 4.30609 
1.44384 9.85503 7.35864 
2.86789 8.37792 5.74759 
2.91779 11.2578 5.8707 
0.0302636 11.2517 5.83118 
0.150681 8.54454 5.72966 
4.45309 9.88706 4.4589 
7.31878 10.0086 4.50893 
4.15985 10.1294 7.33661 
5.71883 8.52121 5.84048 
7.15753 9.9898 7.0491 
5.77875 11.5695 5.81171 
10.0278 10.0526 4.27814 
8.99281 8.53835 5.73247 
9.96678 9.99831 7.31214 
11.5789 8.55602 5.74628 
8.69733 11.5333 5.79668 
11.6443 11.4385 5.72895 
12.9058 9.99913 4.19123 
15.7664 10.2488 4.51517 
12.7754 10.1091 7.20985 
14.3046 8.43321 5.88236 
15.8211 10.0322 7.27267 
14.2941 11.3685 5.83444 
18.6655 10.2488 4.47832 
17.0712 8.64101 5.63966 
18.5865 10.0192 7.07193 
20.0071 8.68358 5.66281 
17.1253 11.5328 5.70347 
20.1963 11.4911 5.70234 
21.6176 9.98308 4.26334 
24.465 9.82932 4.23182 
21.5781 10.1345 7.23278 
22.8575 8.56816 5.7964 
23.1281 11.4577 5.7129 
27.3067 9.8295 4.35709 
24.666 10.0405 7.12589 
25.943 8.46306 5.67179 
27.2624 10.0754 7.17685 
26.0018 11.4308 5.50376 
1.5118 12.7663 4.33394 
1.38959 15.7467 4.41507 
3.95349 12.8651 4.17184 
1.39801 12.7827 7.22426 
1.39518 15.7173 7.2338 
2.82919 14.2073 5.87405 
4.29212 15.6507 4.31611 
7.2872 12.8001 4.18834 
7.32208 15.4857 4.18504 
4.15944 12.7096 7.17004 
7.39651 12.622 7.31175 
4.29804 15.6723 7.15419 
5.71441 14.1472 5.70967 
7.02395 15.6585 7.16747 
10.0098 12.9928 4.37308 
10.1631 15.7982 4.40663 
10.1686 12.87 7.25422 
8.59755 14.2486 5.82723 
9.96295 15.6643 7.28561 
11.5924 14.4311 5.69898 
13.0323 12.8091 4.20141 
15.8628 12.8654 4.19649 
13.0518 15.6622 4.39693 
15.8205 15.7822 4.32869 
13.033 12.9547 7.37226 
15.8152 12.8467 7.20862 
13.0732 15.7469 7.05524 
14.5011 14.1529 5.82468 
15.7366 15.866 7.0016 
18.8281 12.7938 4.22916 
18.687 15.9043 4.251 
18.7543 12.8346 7.07016 
17.2605 14.293 5.64285 
18.5752 15.8391 6.95762 
20.0653 14.3468 5.56669 
21.5305 12.9789 4.25355 
21.6628 15.8723 4.19327 
24.5408 15.7914 4.27266 
24.5681 12.7115 4.27017 
21.5585 12.929 7.16857 
24.405 13.1216 7.01438 
21.5387 15.7746 6.99747 
23.0713 14.3551 5.57018 
24.4512 15.8821 7.1401 
27.4226 12.8107 4.24441 
27.2847 15.8519 4.13016 
28.582 14.2641 5.68238 
27.3013 12.8052 7.41006 
25.9371 14.4731 5.76464 
27.2018 15.7944 7.18183 
1.52277 18.578 4.43008 
1.5767 18.5748 7.19127 
3.09098 17.1125 5.69634 
3.13727 20.1201 5.61074 
0.021651 19.9028 5.66932 
4.20094 18.5813 4.2926 
7.14031 18.5121 4.41572 
4.36457 18.4461 7.19465 
5.80307 17.0781 5.63875 
7.13227 18.4884 7.08893 
5.82023 19.9323 5.61684 
10.1177 18.7597 4.40008 
8.61894 17.1635 5.87806 
10.1272 18.5343 7.39686 
11.5071 17.1485 5.65153 
8.37619 20.0091 5.78344 
11.2811 20.0934 5.96103 
12.7855 18.6145 4.39593 
15.7933 18.6633 4.22568 
13.0337 18.5849 7.07823 
14.3726 17.3532 5.65988 
15.7391 18.8099 7.1269 
14.3817 20.0498 5.65977 
18.5626 18.7359 4.10315 
17.2031 17.3393 5.6266 
18.6604 18.6349 7.04081 
20.0785 17.3307 5.6793 
17.4162 20.2064 5.65812 
20.174 20.1016 5.39101 
21.3897 18.8646 7.1354 
23.0342 17.4088 5.69881 
24.4817 18.7488 7.19181 
22.9207 20.0814 5.58102 
27.3194 18.7904 4.23551 
28.389 17.2104 5.78617 
26.0182 17.2961 5.64993 
27.3276 18.7854 7.22244 
25.8294 20.1314 5.67816 
1.33485 21.4423 4.19837 
1.39063 24.0961 4.14423 
1.52401 21.5451 7.11871 
2.85308 22.752 5.82318 
1.62189 24.3311 6.96734 
4.44476 21.5376 4.36018 
7.25481 21.5779 4.29956 
7.28583 24.5086 4.43222 
4.3247 24.3646 4.26398 
4.49449 21.6185 7.08339 
7.27111 21.7411 7.08845 
4.30553 24.3374 7.21752 
5.93813 22.9893 5.74633 
6.97452 24.3864 7.28781 
9.95708 21.4757 4.21619 
10.2031 24.5613 4.40926 
10.0694 21.6355 7.22862 
8.74066 23.2536 5.47991 
9.97261 24.4345 7.25044 
11.319 23.0041 5.66069 
12.8901 21.5315 4.39161 
15.7636 21.4472 4.37192 
12.7478 24.4219 4.3508 
15.8146 24.2249 4.37155 
12.9827 21.4195 7.03385 
15.7374 21.495 7.08801 
14.325 22.9674 5.80323 
15.7809 24.5162 7.2278 
12.6348 24.3232 7.1476 
18.614 21.5424 4.19988 
18.678 24.4683 4.45051 
18.8132 21.5232 7.14212 
17.0973 22.9238 5.72606 
18.6164 24.4857 7.17146 
20.1181 23.0276 5.73399 
21.4726 21.4856 4.24493 
24.3714 21.5212 4.19257 
21.6553 24.4854 4.20172 
21.6208 21.5859 7.07426 
21.4418 24.4124 7.19198 
22.9606 22.9758 5.62834 
24.4258 21.6088 7.31575 
24.3916 24.2269 7.10769 
27.3158 21.4384 4.22828 
26.9714 24.4434 4.22751 
28.6933 22.8332 5.63885 
27.2963 21.5375 7.02172 
25.908 22.9564 5.58606 
27.4716 24.3938 6.9874 
1.63852 27.1516 4.28584 
2.89098 28.4782 5.82733 
0.171956 28.4964 5.50683 
1.49204 27.2418 7.35132 
2.96189 25.8025 5.83779 
0.0268456 25.7896 5.60803 
4.32697 27.0588 4.33748 
7.09318 27.3854 4.38477 
5.47194 28.547 5.77451 
4.30905 27.2722 7.09432 
5.67092 25.7451 5.66576 
7.18445 27.2941 6.94381 
9.9365 27.3473 4.47673 
8.60171 25.9101 5.73836 
9.89832 27.4061 7.11424 
11.5986 25.7838 5.60319 
12.9204 27.4061 4.40944 
15.7015 27.4059 4.37639 
12.7556 27.3081 7.23286 
14.4488 25.7902 5.74161 
15.763 27.4237 7.32436 
18.7229 27.2243 4.24939 
17.2258 28.6851 5.83362 
17.2009 25.8234 5.69969 
18.6484 27.3614 7.04757 
20.0117 25.925 5.72728 
21.5272 27.3344 4.14725 
24.5052 27.4754 4.3778 
21.5733 27.1989 7.12678 
22.949 25.5905 5.69161 
24.3396 27.192 7.10203 
27.1981 27.2467 4.26139 
25.9147 28.5785 5.73122 
25.8626 25.7482 5.77471 
27.3001 27.0569 7.08112 
3.02636 2.74663 8.70291 
0.0608365 2.90598 8.75379 
1.57161 1.28692 10.0688 
2.99694 2.8096 11.2982 
2.98748 0.00781843 11.5329 
5.87482 2.94738 8.64127 
4.51303 1.33102 10.1129 
7.35635 1.39678 10.1538 
5.94503 2.96544 11.6018 
8.87064 3.05933 8.62747 
11.4916 2.87787 8.68396 
11.563 0.0323395 8.62456 
8.71549 0.0786837 8.61459 
11.4746 0.0715429 11.7622 
9.99363 1.3775 10.129 
8.79888 2.98146 11.7681 
11.5343 2.91752 11.7052 
8.59612 0.0727564 11.5364 
14.5594 2.99313 8.60332 
14.4328 0.0371015 8.67447 
12.9354 1.42878 10.1199 
15.9529 1.5903 10.049 
14.4456 2.87676 11.4033 
17.2446 2.82363 8.66022 
20.0412 2.92526 8.48101 
17.4141 0.051246 8.85134 
20.0902 0.118274 8.61755 
20.0017 0.333358 11.4852 
18.8965 1.61667 9.97955 
17.2648 2.86942 11.3652 
20.0193 2.87214 11.548 
23.0041 2.97211 8.50294 
23.0168 0.0538714 11.5711 
21.6757 1.44702 9.94449 
24.506 1.4559 9.90159 
23.0415 2.96501 11.3062 
26.0381 2.79755 8.54941 
28.595 2.74475 11.5925 
27.2933 1.26303 10.0414 
25.9419 2.71774 11.5294 
2.91909 5.56036 8.63876 
1.48171 4.28942 10.1239 
1.35676 7.07801 10.0309 
2.95727 5.64854 11.5282 
0.101372 5.56414 11.565 
5.75127 5.65075 8.85565 
4.35848 7.10915 9.99621 
4.3712 4.18488 10.216 
7.24334 4.36415 10.1837 
7.09259 7.15287 9.94904 
5.56922 5.79532 11.4725 
8.82697 5.66918 8.82463 
11.5359 5.79022 8.85524 
10.2184 4.40215 10.2932 
10.2473 7.26929 10.033 
8.65594 5.70215 11.5187 
11.6087 5.76836 11.5162 
14.1719 5.85167 8.74622 
15.6562 4.30612 10.0695 
12.9556 4.32816 9.94422 
13.0176 7.39385 10.1448 
15.7235 7.24629 9.98512 
14.3541 5.90562 11.5238 
17.3782 5.72319 8.56325 
20.0971 5.75262 8.64733 
18.8799 4.36757 9.93253 
18.7594 7.3307 10.0644 
17.3213 5.62953 11.4123 
20.1297 5.80161 11.4661 
22.9664 5.78982 8.56664 
21.5924 4.3162 10.0604 
21.4862 7.06895 9.95783 
22.9882 5.84718 11.5492 
24.2719 7.1922 10.0247 
28.6406 5.59223 8.54838 
25.7156 5.71166 8.52003 
24.611 4.26621 10.0412 
27.2008 4.24138 10.0053 
27.1443 7.21256 10.0272 
25.8598 5.65344 11.3864 
2.94745 8.46869 8.64258 
2.98771 11.5148 8.81341 
0.0425097 11.3657 8.63817 
1.32946 9.94286 10.045 
2.91783 8.55819 11.5993 
2.7171 11.5945 11.4073 
5.74708 8.75778 8.49912 
5.83307 11.4272 8.67302 
4.32983 9.94145 10.2122 
7.22691 9.9926 10.2572 
5.8414 8.56366 11.5139 
5.59291 11.3621 11.736 
8.53248 8.54899 8.64548 
11.5629 8.65937 8.69634 
8.5144 11.3106 8.77508 
11.5002 11.5109 8.67194 
10.0975 9.88515 10.0712 
8.70657 8.59083 11.5131 
11.4531 8.41838 11.5894 
8.71949 11.504 11.4752 
11.3209 11.5877 11.437 
14.3638 8.73995 8.60347 
14.4046 11.5891 8.74516 
12.8635 10.1053 10.1266 
15.9073 10.0857 10.0351 
14.5121 8.62084 11.4781 
14.2553 11.4744 11.6064 
17.341 8.65811 8.64701 
20.1947 8.5993 8.57026 
17.231 11.3918 8.63934 
20.0869 11.5798 8.65128 
18.6544 10.0072 10.1684 
17.1866 8.52306 11.5626 
20.3212 8.52486 11.6347 
17.3176 11.568 11.6041 
19.9479 11.3521 11.6254 
23.2075 8.71052 8.67487 
23.0924 11.5965 8.65417 
21.5129 9.93414 10.1211 
22.793 8.5947 11.4588 
23.0119 11.7163 11.2665 
24.4561 10.139 10.059 
28.6011 8.48628 8.76683 
25.7234 8.7168 8.55379 
25.8231 11.7117 8.49304 
28.6219 8.48197 11.2715 
28.5967 11.5588 11.4467 
27.1686 10.1199 10.0097 
25.7552 8.63798 11.427 
25.6963 11.5732 11.5029 
2.72118 14.2251 8.60374 
1.21312 12.8978 10.0137 
1.37515 15.9233 10.1422 
2.66783 14.331 11.4092 
5.64227 14.2196 8.59495 
4.42059 12.8359 9.9969 
7.18709 12.8389 10.0685 
4.33752 15.6501 9.97947 
7.11949 15.7185 10.073 
5.63913 14.3123 11.4196 
8.55639 14.2766 8.51017 
11.458 14.268 8.67985 
9.87544 12.8692 9.98702 
10.2175 15.6602 9.9972 
8.58363 14.2219 11.3104 
11.2906 14.2164 11.5687 
14.402 14.3587 8.65699 
12.9596 12.8197 10.0645 
15.7891 12.9513 9.985 
13.1144 15.7743 10.0578 
15.8091 15.82 9.9928 
14.3228 14.0725 11.3687 
17.401 14.455 8.42569 
20.1037 14.25 8.37064 
18.6417 13.0458 10.0697 
18.6893 15.7317 9.95179 
17.2905 14.3262 11.4359 
20.1489 14.2836 11.4833 
22.9139 14.4128 8.39884 
21.5546 12.8891 9.91514 
21.5625 15.8007 9.99915 
22.9621 14.4227 11.1903 
24.372 12.9911 9.84377 
24.4663 15.9757 9.91732 
28.6528 14.2686 8.48318 
25.8144 14.3554 8.60096 
28.5387 14.3376 11.3294 
27.2809 12.971 9.92376 
27.3667 15.9078 9.96867 
25.8941 14.4888 11.3314 
2.83514 17.0943 8.68168 
2.95482 20.0139 8.43052 
0.0331701 20.0979 8.60861 
0.0458236 17.3369 8.53684 
1.46265 18.5911 9.78122 
2.88965 17.3013 11.3219 
2.84254 19.9659 11.478 
0.00381102 17.2901 11.4893 
5.66851 17.1558 8.51493 
5.71141 20.0911 8.4187 
4.42169 18.5982 10.111 
7.24207 18.5317 9.86171 
5.67133 17.2648 11.357 
5.80271 20.2577 11.3476 
8.76929 17.0405 8.71509 
11.6445 17.2206 8.34198 
8.70442 19.9805 8.55934 
11.5766 20.2203 8.54813 
10.0696 18.5808 9.86339 
8.61834 17.058 11.4051 
11.3845 17.1476 11.2943 
8.50336 20.0873 11.2145 
11.6249 20.1528 11.4473 
14.3621 17.231 8.41755 
14.3293 20.2705 8.56346 
12.9119 18.5307 9.88458 
15.5722 18.6385 9.91885 
14.4597 17.1659 11.4762 
14.4994 20.2039 11.3582 
17.1717 17.3415 8.521 
20.0427 17.1667 8.45138 
17.2024 20.0224 8.50848 
20.1235 20.1221 8.58165 
18.8439 18.6635 9.98313 
17.295 17.167 11.3953 
20.1071 17.2255 11.3356 
17.1791 19.9948 11.2927 
20.1727 20.1149 11.5173 
22.8903 17.22 8.53373 
22.9221 20.1139 8.80666 
21.5331 18.6368 10.0179 
22.9667 17.3136 11.3971 
22.8305 20.2241 11.5279 
24.3538 18.7595 10.0561 
25.977 17.302 8.6247 
26.0375 20.0446 8.59737 
28.6066 20.0145 11.5504 
27.24 18.6844 10.1947 
25.8693 17.1928 11.4852 
25.8815 20.1277 11.4309 
2.95298 22.9576 8.63584 
0.166958 23.0067 8.34373 
0.106506 22.7826 11.2944 
1.60836 21.4104 10.0541 
1.39683 24.2934 10.0221 
2.86918 23.0525 11.3283 
5.70807 23.0253 8.8398 
7.24461 24.342 10.1643 
4.37878 21.4602 9.95586 
7.2761 21.4798 9.86969 
4.27085 24.3456 9.93927 
5.79593 23.0067 11.358 
8.55952 22.9917 8.51725 
11.5594 22.8854 8.61928 
10.1229 24.4452 10.1344 
9.97942 21.5062 10.0548 
8.60576 22.8232 11.4583 
11.4567 22.9008 11.5944 
14.289 23.0922 8.55227 
12.982 21.467 10.1632 
15.9755 21.4916 9.94934 
12.8891 24.439 10.1072 
15.8348 24.3818 9.87683 
14.3624 23.0385 11.4317 
17.3327 22.8738 8.52478 
20.0121 23.0925 8.67497 
18.8005 21.5072 9.96867 
18.616 24.5643 9.95947 
20.0911 23.1981 11.4197 
17.2656 23.0343 11.3205 
22.8612 22.9334 8.60679 
24.3115 21.5662 10.1833 
21.5749 24.372 10.0692 
24.5155 24.3342 9.9389 
21.3546 21.5133 9.89681 
22.9055 22.9557 11.5733 
25.8249 22.8531 8.60646 
27.1237 24.2715 9.90975 
25.9344 22.889 11.3451 
27.4335 21.4875 9.97185 
0.0841483 28.6068 8.65908 
2.87249 28.5767 8.62936 
2.93811 25.763 8.68524 
0.0243185 25.7695 8.5212 
0.041962 25.7275 11.2964 
0.124493 28.4815 11.4706 
2.92297 25.6952 11.4236 
1.5709 27.0897 10.004 
5.76689 28.6524 8.56583 
5.8474 25.9673 8.6042 
4.4468 27.2518 10.0631 
7.20049 27.2611 10.3056 
5.63733 25.6217 11.4373 
5.78978 28.6485 11.4282 
8.63442 25.9849 8.70911 
11.5734 25.8702 8.61672 
10.2375 27.2451 10.1127 
8.78704 25.9313 11.5077 
11.3664 25.7866 11.6313 
14.0916 25.6913 8.60497 
12.7771 27.2616 10.2978 
15.7562 27.2538 9.91136 
14.3671 25.9074 11.6267 
14.3473 28.7102 11.4579 
17.268 25.9035 8.47381 
20.1936 25.6841 8.7161 
17.1371 28.6798 11.4074 
20.1397 25.9218 11.6879 
18.7414 27.2419 10.0522 
17.1209 25.8787 11.3607 
23.0936 28.5797 8.64963 
23.0933 25.6558 8.37451 
22.9545 25.7315 11.1736 
24.4904 27.1291 10.0153 
21.5639 27.219 9.91533 
25.9238 28.6143 8.5643 
25.861 25.7675 8.55546 
25.7176 25.7985 11.5493 
27.53 27.2523 10.0578 
25.7664 28.5576 11.4837 
1.39564 1.10713 12.9044 
1.52888 1.3083 15.9448 
0.0234402 2.67914 14.5503 
2.8621 2.78997 14.3688 
4.2757 1.46634 12.8618 
7.0446 1.44504 12.9964 
5.71256 2.9142 14.3243 
4.32171 1.4486 15.643 
7.2555 1.57213 15.8656 
10.0981 1.49122 13.1136 
8.47551 2.92709 14.3232 
8.80682 0.263621 14.3209 
10.2068 1.40128 16.0414 
11.6504 2.82825 14.442 
12.9741 1.34091 12.9523 
15.8655 1.50494 13.0208 
14.4124 2.74645 14.1634 
12.8588 1.38832 15.8521 
15.6415 1.39419 15.8228 
18.5624 1.61753 13.1355 
16.9872 3.04353 14.3145 
18.4891 1.41132 16.0297 
17.2939 0.0550041 14.4325 
19.9552 2.93472 14.4179 
21.5971 1.5642 13.0364 
24.5467 1.46431 12.8831 
21.3571 1.4088 15.7691 
23.0381 2.88511 14.4416 
22.9893 0.113511 14.4656 
27.1748 1.29761 12.9584 
25.9209 2.93406 14.3168 
24.6561 1.4202 15.7057 
27.2667 1.36011 15.7474 
25.7647 0.0399554 14.4243 
1.35937 4.16659 12.8743 
1.27603 7.12723 12.8407 
1.33296 4.30058 15.8145 
1.33778 7.22629 15.6812 
2.82168 5.7108 14.4998 
4.1455 4.25164 13.1236 
7.03593 4.49637 13.0014 
4.31787 7.16877 13.0135 
7.23598 7.19861 12.8201 
7.30127 4.27512 15.8646 
4.33042 4.48006 16.0736 
4.26702 7.16235 15.984 
7.27573 7.33558 15.8875 
5.85926 5.82708 14.5418 
10.0711 4.52919 13.0598 
10.1289 6.96711 12.9005 
10.1315 4.29914 15.8434 
10.1878 7.26458 15.87 
11.5669 5.4908 14.5146 
8.60033 5.79704 14.4546 
12.9839 4.15753 12.9459 
15.6794 4.36396 12.845 
13.0226 7.05163 13.0771 
15.9034 7.13674 12.8496 
13.1394 4.18938 15.7731 
15.5131 4.31335 15.8351 
12.9604 7.13066 15.8472 
15.6589 7.36525 15.8047 
14.5009 5.79256 14.4179 
18.6649 4.30325 12.7267 
18.7254 7.21155 12.9824 
19.9564 5.51398 14.269 
17.1739 5.68775 14.3148 
18.4464 4.3277 15.7682 
18.7134 7.28886 15.6573 
21.6945 4.39394 12.8593 
24.2939 4.37384 13.0217 
21.472 7.12111 13.0257 
24.3356 7.34007 12.7564 
21.5272 4.15368 16.1344 
21.4475 7.1045 15.6343 
24.3147 7.13888 15.6968 
24.4639 4.25297 15.9819 
22.9412 5.63409 14.4649 
27.3022 4.21195 12.8959 
27.1797 6.92881 13.016 
28.7005 5.61709 14.3805 
27.3564 4.30249 15.9408 
27.2888 7.23768 15.8451 
25.7879 5.58541 14.4678 
1.14582 9.99108 12.9623 
2.82677 11.2873 14.3448 
1.34925 10.01 15.7673 
2.81288 8.45936 14.4649 
4.29123 9.98647 12.951 
7.26647 10.1305 13.0032 
5.71803 11.5132 14.3543 
4.23299 10.0962 15.8603 
7.35096 10.184 15.7715 
5.81415 8.51446 14.3737 
10.0388 9.86283 12.94 
11.4751 8.58928 14.3125 
9.92987 10.0317 15.7113 
11.5236 11.5906 14.4921 
8.67898 11.6323 14.4028 
8.57816 8.39621 14.5216 
12.7534 10.1422 12.7963 
15.8762 10.1786 12.9465 
14.4118 8.75824 14.0876 
13.0469 9.97311 15.5149 
15.8375 9.98784 15.7802 
14.1463 11.6253 14.4234 
17.3812 8.69181 14.317 
18.5839 9.84883 12.8757 
18.8356 10.0491 15.7565 
17.1151 11.5632 14.4718 
20.1358 8.70207 14.4224 
19.9682 11.5558 14.4317 
21.6356 10.1571 13.0153 
24.2593 10.0075 12.7737 
22.929 11.5376 14.1155 
22.9603 8.47352 14.1168 
21.7982 9.96944 15.7251 
24.3093 10.1721 15.6699 
28.6889 8.46419 14.3102 
27.1572 10.1093 12.8654 
25.8737 8.56065 14.2997 
28.5199 11.5643 14.2985 
25.6109 11.5044 14.1257 
27.1371 10.0138 15.6607 
1.33403 12.9301 12.7715 
1.37676 15.6906 12.8706 
2.84316 14.2849 14.1698 
1.34938 12.935 15.7307 
1.46638 15.7086 15.7227 
4.24055 13.0092 12.8263 
6.99756 12.7602 12.6793 
4.4446 15.7877 12.8338 
7.27936 15.7713 12.8065 
5.88269 14.4342 14.2371 
4.18999 12.8703 15.5485 
7.09733 12.9731 15.6917 
4.34968 15.7524 15.5891 
7.17032 15.7986 15.8216 
9.90887 12.8483 13.0194 
9.90352 15.7768 12.9475 
8.46081 14.3667 14.2543 
10.0961 12.909 15.8425 
9.93572 15.7842 15.7469 
11.312 14.5212 14.4024 
12.8955 12.988 12.97 
15.8715 12.9613 13.0459 
12.8597 15.7143 12.6806 
15.8471 15.6703 12.8949 
14.3674 14.4151 14.2758 
13.0422 12.8651 15.8128 
15.6161 13.0729 15.7579 
12.8979 15.8796 15.7123 
15.7091 15.8262 15.6475 
18.7179 12.9378 13.0806 
18.7036 15.8409 12.9037 
18.5842 12.8471 15.953 
18.5786 15.9291 15.6799 
20.2304 14.2539 14.4218 
17.2256 14.5495 14.3735 
21.5512 12.8073 12.8717 
21.4553 15.788 12.8502 
24.4739 15.832 13.0089 
24.3991 13.184 12.7499 
22.8692 14.2826 14.2777 
21.5652 12.886 15.8799 
24.5158 13.0092 15.6571 
21.4784 15.719 15.7472 
24.5704 15.7529 15.7208 
28.5449 14.2911 14.2372 
27.0411 12.8974 12.9247 
27.333 15.7833 12.6791 
25.9953 14.403 14.2409 
27.0798 12.8775 15.8395 
27.3768 15.7719 15.8478 
1.44589 18.6089 12.7573 
2.8484 20.0846 14.2128 
2.81288 17.2043 14.3327 
1.37012 18.7191 15.775 
4.30989 18.6859 12.8645 
7.35614 18.6475 12.6606 
5.82225 20.0643 14.2298 
5.77981 17.223 14.2744 
4.18778 18.6159 15.8614 
7.16411 18.6787 15.7753 
10.0407 18.5558 12.9165 
11.3336 17.1486 14.2173 
8.52263 20.0188 14.3119 
11.4515 19.882 14.2442 
9.98718 18.5744 15.7113 
8.61719 17.1696 14.4196 
12.7156 18.548 12.5825 
15.8293 18.7718 12.857 
14.2768 17.2877 14.0212 
14.3941 20.1129 14.2788 
12.7972 18.6231 15.6991 
15.7472 18.4122 15.7844 
20.0704 20.1148 14.1174 
18.9161 18.4393 12.7475 
17.7908 20.0363 13.6191 
17.2571 17.2635 14.2943 
20.1137 17.23 14.2816 
16.6938 20.2893 15.2314 
18.5919 18.8866 15.7854 
22.9369 20.1495 14.3037 
21.6408 18.6909 12.8601 
24.3848 18.5979 12.7477 
21.6369 18.7737 15.936 
24.4632 18.441 15.7079 
22.9175 17.3299 14.3918 
27.3086 18.9231 13.0721 
28.7014 17.225 14.3432 
26.0123 17.1301 14.2799 
25.8694 20.0715 14.2758 
27.304 18.6228 15.7111 
28.6249 20.0965 14.3921 
2.95345 22.8524 14.3312 
1.45774 21.5874 12.7496 
1.52586 24.3917 12.8504 
1.35538 21.6374 15.7421 
1.49554 24.2532 15.7882 
4.38487 21.3758 12.6512 
7.38413 21.4138 12.916 
4.3944 24.1446 12.8617 
7.26256 24.1629 12.8612 
4.27279 21.5689 15.9328 
7.1752 21.5589 15.8809 
4.20698 24.468 15.9639 
7.11344 24.3179 15.7025 
5.84399 22.893 14.3708 
11.4822 22.7161 14.3418 
10.0029 21.2772 12.7669 
9.93787 24.134 13.0196 
10.0488 21.3064 15.7547 
10.2277 24.4434 15.7507 
8.72938 22.773 14.3877 
13.0079 21.4629 12.8927 
15.8228 21.5643 12.9692 
12.8839 24.3131 13.0497 
15.6599 24.4927 12.9661 
14.3307 22.8919 14.1757 
12.9938 21.4574 15.8481 
15.8092 22.1005 16.0123 
15.7742 24.391 15.74 
12.8505 24.3297 15.7625 
18.6962 21.7779 12.5344 
18.546 24.5703 12.9477 
17.4099 22.9264 14.3032 
20.0386 23.0134 14.243 
18.7714 21.7472 15.8673 
18.6417 24.5889 15.7995 
24.552 21.6107 12.8199 
21.4643 21.6899 12.8634 
21.7345 24.4238 12.8859 
24.5127 24.3661 12.9782 
21.4906 21.6374 15.6786 
24.387 21.4993 15.8873 
21.38 24.4523 15.785 
24.5427 24.3586 15.9284 
23.1461 22.9777 14.42 
28.5918 23.0781 14.2697 
27.331 21.6662 12.967 
27.2563 24.4634 12.7943 
25.8498 23.0576 14.2576 
27.1858 21.4941 15.7851 
27.3782 24.5718 15.9448 
0.0832423 25.8631 14.1848 
1.54112 27.0804 12.7807 
3.0987 28.5191 14.2887 
2.95059 25.7861 14.3271 
1.58742 27.2359 15.6384 
5.84523 25.7094 14.1751 
4.41265 27.2213 12.8293 
7.24147 27.1319 12.9777 
5.68362 28.6705 14.3429 
4.35008 27.3551 15.7075 
7.23371 27.3115 15.6131 
10.0471 27.2344 13.079 
10.0235 27.23 15.8459 
11.4804 25.8374 14.367 
8.67406 25.7259 14.4209 
11.3932 28.6653 14.4044 
12.9438 27.2488 12.9978 
15.9775 27.4193 13.0175 
14.2741 28.6708 14.4363 
12.8447 27.3238 15.82 
15.8068 27.317 15.9413 
14.4432 25.9336 14.5019 
18.31 27.3685 12.8629 
20.1348 25.9435 14.1926 
20.1613 28.694 14.4088 
17.1474 25.853 14.438 
18.565 27.35 15.7717 
24.2189 27.2057 12.8563 
21.5838 27.2727 12.854 
21.5605 27.3825 15.8248 
24.3235 27.2443 15.8074 
23.0465 25.692 14.4089 
27.2057 27.2464 12.8494 
27.4879 27.2121 15.8464 
25.9156 25.8765 14.4051 
28.6729 28.5346 14.4041 
1.52044 1.32581 18.5624 
2.86297 3.05232 17.1926 
0.0385802 2.91293 17.3562 
2.84911 2.90597 20.0689 
0.0989814 2.94702 20.0371 
4.50994 1.44652 18.5698 
7.2413 1.48045 18.464 
5.81677 3.03118 17.3495 
5.61411 2.9203 20.1592 
5.88503 0.163821 20.1012 
9.7852 1.40683 18.7603 
8.7806 3.01465 17.2287 
11.4954 2.97784 17.4602 
11.4109 0.0279229 17.5127 
8.41493 2.90633 20.0398 
11.1549 2.83193 20.0831 
8.6574 0.0618589 20.1529 
12.7504 1.34035 18.7853 
15.7285 1.39544 18.8413 
14.3074 2.63606 17.2791 
14.3432 0.0999083 17.3997 
14.2844 2.7682 20.269 
18.5204 1.33623 18.8149 
17.1825 2.88247 17.2726 
20.0259 2.74146 17.2525 
20.1215 0.0360063 17.3224 
17.2619 0.0452686 17.4435 
17.3124 2.85134 20.0924 
19.9636 2.47644 20.2317 
17.261 0.0847237 20.2489 
21.5818 1.35664 18.4442 
23.0712 2.94596 17.3447 
24.5174 1.54801 18.5518 
23.0483 2.5927 20.0003 
27.2996 1.52522 18.5897 
25.8762 2.8235 17.267 
25.9306 0.0509167 17.2709 
25.85 2.96778 20.2176 
25.7608 0.103511 20.0879 
1.48013 4.4903 18.7015 
1.49994 7.25354 18.7865 
2.74714 5.80387 17.1992 
2.79293 5.78812 20.3184 
4.18186 4.63738 18.6328 
7.12056 4.44243 18.6333 
4.34546 7.34899 18.5656 
5.89598 5.89156 17.1923 
7.23162 7.11169 18.6193 
5.66634 5.9433 20.102 
10.0095 4.42063 18.8204 
8.78283 5.59152 17.288 
10.1772 7.19739 18.9299 
11.3885 5.78925 17.37 
8.49137 5.76436 20.1652 
11.5458 5.84368 20.2818 