ITEM: TIMESTEP
15042
ITEM: NUMBER OF ATOMS
2001
ITEM: BOX BOUNDS pp pp pp
0.0000000000000000e+00 2.8712000000000000e+01
0.0000000000000000e+00 2.8712000000000000e+01
0.0000000000000000e+00 2.8712000000000000e+01
ITEM: ATOMS x y z c_cna 
1.43606 1.43322 1.43501 3 
2.87129 2.86896 2.87056 3 
2.87056 2.86871 0.000417763 3 
0.00154888 2.86956 2.86948 3 
4.306 1.43304 1.43597 3 
7.17617 1.43339 1.43641 3 
5.74115 2.86893 2.87128 3 
5.7405 2.86899 0.00125581 3 
10.047 1.43388 1.43624 3 
8.6115 2.86932 2.87131 3 
11.4825 2.86978 2.87088 3 
8.61113 2.86937 0.00153228 3 
11.4825 2.86965 0.00134516 3 
12.9184 1.43419 1.43578 3 
15.7902 1.4344 1.43522 3 
14.3542 2.87007 2.87029 3 
14.3544 2.86972 0.000891361 3 
18.6624 1.43449 1.43468 3 
17.2263 2.87023 2.86969 3 
20.0986 2.87035 2.86915 3 
17.2265 2.8697 0.000378887 3 
21.5346 1.43449 1.43419 3 
24.4066 1.43431 1.43392 3 
22.9709 2.87036 2.86879 3 
27.2778 1.43385 1.43414 3 
25.8428 2.87017 2.86882 3 
1.43604 4.30453 1.43495 3 
1.43595 7.17553 1.43498 3 
2.87118 5.74006 2.87058 3 
0.00125241 5.73999 2.86969 3 
2.87045 5.74003 0.000440736 3 
4.30582 4.30446 1.43587 3 
7.17596 4.30462 1.43634 3 
4.30575 7.17567 1.43591 3 
7.1759 7.17553 1.43637 3 
5.74104 5.74007 2.87125 3 
5.74038 5.74007 0.00120767 3 
10.0468 4.30484 1.43627 3 
10.0468 7.17532 1.43629 3 
8.61147 5.74007 2.87138 3 
11.4826 5.74007 2.8711 3 
11.4825 5.74009 0.00134996 3 
8.61105 5.74009 0.00147946 3 
12.9184 4.30495 1.43588 3 
15.7904 4.30498 1.43535 3 
12.9184 7.17515 1.43591 3 
15.7904 7.17502 1.43539 3 
14.3543 5.74003 2.87061 3 
14.3544 5.74006 0.00089875 3 
18.6625 4.30498 1.4348 3 
18.6625 7.17495 1.43482 3 
17.2264 5.73995 2.87007 3 
20.0986 5.73992 2.86958 3 
17.2265 5.74002 0.000367105 3 
24.4064 4.30488 1.43413 3 
21.5346 4.30497 1.43436 3 
21.5346 7.17493 1.4344 3 
22.9707 5.73991 2.86924 3 
24.4064 7.17499 1.43413 3 
27.2777 4.30472 1.43428 3 
27.2777 7.17523 1.43429 3 
25.8424 5.73996 2.86922 3 
1.43588 10.0468 1.43504 3 
2.8712 8.61114 2.87062 3 
2.87117 11.4826 2.87081 3 
0.0014379 8.61045 2.8695 3 
2.8704 8.61135 0.000432832 3 
0.00133694 11.4819 2.86958 3 
2.8704 11.4828 0.00049359 3 
4.3058 10.047 1.436 3 
7.17604 10.0467 1.43643 3 
5.74107 8.6112 2.87131 3 
5.74129 11.4826 2.87152 3 
5.74034 8.61112 0.0012622 3 
5.74058 11.4825 0.00129716 3 
10.0469 10.0462 1.43628 3 
8.61146 8.61081 2.87135 3 
11.4825 8.61033 2.87092 3 
8.61173 11.4821 2.87143 3 
11.4826 11.4814 2.87084 3 
11.4825 8.61047 0.00138355 3 
8.61124 11.4819 0.00160189 3 
11.4826 11.4816 0.00138638 3 
8.61103 8.61074 0.00155627 3 
12.9184 10.0458 1.43581 3 
15.7904 10.0456 1.43523 3 
14.3542 8.60996 2.87034 3 
14.3542 11.4808 2.87017 3 
14.3544 8.61034 0.000944325 3 
14.3545 11.4814 0.000917868 3 
18.6625 10.0455 1.43468 3 
17.2263 8.60969 2.86972 3 
20.0986 8.60952 2.86918 3 
17.2263 11.4804 2.8695 3 
20.0987 11.4801 2.86888 3 
17.2265 8.61032 0.00039586 3 
17.2265 11.4814 0.000410217 3 
21.5346 10.0454 1.43421 3 
24.4065 10.0456 1.43393 3 
22.9709 8.60949 2.86879 3 
22.9712 11.4801 2.86836 3 
27.2777 10.0462 1.43413 3 
25.8427 8.60979 2.86882 3 
25.8431 11.4806 2.86841 3 
1.43573 12.9184 1.4352 3 
1.43565 15.7896 1.43539 3 
2.8712 14.354 2.87111 3 
0.00104567 14.3536 2.8699 3 
2.87045 14.3541 0.000541051 3 
4.30595 12.9185 1.43614 3 
7.17645 12.9182 1.43654 3 
4.30618 15.7897 1.43627 3 
7.17694 15.7895 1.43666 3 
5.74167 14.354 2.87179 3 
5.74091 14.3539 0.00129876 3 
10.0473 12.9177 1.43639 3 
10.048 15.7893 1.43652 3 
8.61235 14.3537 2.87175 3 
11.4833 14.3533 2.87128 3 
8.61181 14.3536 0.00152665 3 
11.4831 14.3532 0.00129692 3 
12.9187 12.9173 1.43593 3 
15.7905 12.917 1.43544 3 
12.9194 15.7891 1.43631 3 
15.7909 15.7888 1.43599 3 
14.3547 14.3527 2.87083 3 
14.3547 14.353 0.000876153 3 
18.6624 12.9168 1.43495 3 
18.6624 15.7886 1.43558 3 
17.2265 14.3522 2.87035 3 
20.0988 14.3518 2.86966 3 
17.2265 14.353 0.000445973 3 
20.0982 14.3532 4.92083e-05 3 
21.5345 12.9169 1.43445 3 
24.4064 12.9172 1.43408 3 
21.5341 15.7887 1.43501 3 
22.9712 14.352 2.86891 3 
24.4056 15.7891 1.43458 3 
27.2773 12.9179 1.43436 3 
27.277 15.7895 1.43464 3 
25.8425 14.353 2.86901 3 
1.43568 18.6606 1.43547 3 
2.87128 17.2251 2.87129 3 
2.87135 20.096 2.87136 3 
0.00086028 17.225 2.8702 3 
0.000858499 20.0961 2.87026 3 
2.87061 20.096 0.000564685 3 
2.87051 17.2252 0.000577688 3 
4.30635 18.6606 1.43635 3 
7.17726 18.6605 1.43672 3 
5.74198 17.2251 2.87201 3 
5.74214 20.096 2.87206 3 
5.74121 17.225 0.00130845 3 
5.74138 20.0959 0.00129268 3 
10.0485 18.6604 1.43663 3 
8.61291 17.225 2.87205 3 
11.4841 17.2249 2.87182 3 
8.61313 20.0959 2.87213 3 
11.4844 20.0959 2.87201 3 
11.4838 17.2247 0.00120638 3 
11.4841 20.0959 0.00114327 3 
8.61255 20.0959 0.00141107 3 
8.61233 17.2249 0.0014596 3 
12.92 18.6604 1.43652 3 
15.7913 18.6603 1.43643 3 
14.3557 17.2247 2.87185 3 
14.3561 20.096 2.87225 3 
14.3552 17.2246 0.000849172 3 
14.3554 20.0959 0.000818964 3 
18.6623 18.6602 1.43605 3 
17.2271 17.2242 2.87159 3 
20.0986 17.2239 2.87086 3 
17.2275 20.096 2.87229 3 
20.0981 20.0961 2.87136 3 
17.2264 17.2246 0.000461522 3 
20.0973 20.0961 0.000130452 3 
17.2263 20.096 0.000432626 3 
20.0976 17.2247 0.000123636 3 
21.5334 18.6604 1.43538 3 
24.4052 18.6606 1.43483 3 
22.9702 17.2245 2.8699 3 
22.9698 20.0961 2.87018 3 
27.2768 18.6606 1.43476 3 
25.8419 17.2248 2.86948 3 
25.8418 20.0961 2.86964 3 
1.43573 21.5315 1.43546 3 
1.43587 24.4024 1.43539 3 
2.87142 22.9669 2.87128 3 
2.87069 22.9669 0.000555217 3 
0.000985542 22.9671 2.87019 3 
4.30643 21.5314 1.43633 3 
7.17732 21.5314 1.4367 3 
5.74209 22.9668 2.87197 3 
4.30638 24.4024 1.43627 3 
7.17708 24.4024 1.43666 3 
5.74139 22.9669 0.00129429 3 
10.0485 21.5314 1.43661 3 
8.61295 22.9669 2.87204 3 
11.4841 22.967 2.87183 3 
10.0481 24.4026 1.43654 3 
8.6124 22.9669 0.0014285 3 
11.4838 22.9671 0.0011807 3 
12.92 21.5315 1.43651 3 
15.7913 21.5316 1.43645 3 
14.3556 22.9672 2.87186 3 
12.9193 24.4028 1.43631 3 
15.7908 24.4032 1.43601 3 
14.3551 22.9674 0.000827907 3 
18.6623 21.5319 1.43603 3 
18.6623 24.4035 1.43559 3 
17.227 22.9679 2.87163 3 
20.0986 22.9682 2.87086 3 
17.2263 22.9675 0.000471822 3 
20.0976 22.9674 0.000115523 3 
21.5334 21.5318 1.43542 3 
24.4052 21.5316 1.43484 3 
21.5341 24.4034 1.43503 3 
22.9702 22.9677 2.8699 3 
24.4057 24.403 1.43463 3 
27.2768 21.5316 1.43478 3 
27.2771 24.4027 1.43468 3 
25.842 22.9673 2.86953 3 
0.00154482 28.7102 2.86956 3 
2.87137 28.7095 2.87079 3 
2.87064 28.7092 0.000498762 3 
1.43599 27.2737 1.43522 3 
2.87141 25.838 2.87107 3 
0.00126726 25.8385 2.86993 3 
2.87069 25.8379 0.000557541 3 
5.74145 28.7095 2.87148 3 
4.30623 27.2736 1.43613 3 
7.17663 27.2738 1.43655 3 
5.74182 25.838 2.87178 3 
5.74117 25.838 0.00130257 3 
5.74081 28.7095 0.00129143 3 
8.6118 28.7099 2.87142 3 
8.61137 28.7101 0.00157649 3 
11.4826 28.7104 0.00136589 3 
11.4826 28.7106 2.8708 3 
8.61195 25.8384 0.00151264 3 
10.0474 27.2743 1.43638 3 
8.6124 25.8382 2.87177 3 
11.4833 25.8387 2.87129 3 
11.4831 25.8387 0.00129836 3 
14.3541 28.7112 2.87014 3 
14.3544 28.7106 0.000907524 3 
12.9187 27.2746 1.43593 3 
15.7904 27.275 1.43547 3 
14.3545 25.8393 2.87085 3 
14.3547 25.839 0.000876538 3 
17.2262 28.7116 2.86951 3 
17.2264 28.7106 0.00042405 3 
20.0987 28.7118 2.8689 3 
18.6624 27.2751 1.43498 3 
17.2264 25.8398 2.87036 3 
20.0988 25.8402 2.86968 3 
20.0981 25.8389 5.92424e-05 3 
17.2263 25.839 0.000462062 3 
22.9713 28.7119 2.86837 3 
21.5345 27.2752 1.43446 3 
22.9713 25.8401 2.86892 3 
24.4065 27.2749 1.43411 3 
25.8432 28.7114 2.86845 3 
27.2775 27.2742 1.43443 3 
25.8426 25.8391 2.86906 3 
1.43683 1.4339 4.30533 3 
1.4369 1.43438 7.17662 3 
2.87147 2.8693 5.74134 3 
0.00207672 2.87023 5.74036 3 
4.30637 1.43336 4.30632 3 
7.17647 1.4336 4.30659 3 
4.30618 1.43379 7.17719 3 
7.176 1.43437 7.177 3 
5.74117 2.8693 5.74172 3 
10.0468 1.43442 4.30607 3 
10.0469 1.43514 7.17696 3 
8.61164 2.86968 5.74179 3 
11.4825 2.87032 5.74133 3 
11.4818 0.000138072 5.74051 3 
12.918 1.43522 4.30527 3 
15.7899 1.43577 4.30448 3 
12.9177 1.43624 7.17608 3 
15.7898 1.43687 7.17521 3 
14.3541 2.87077 5.74071 3 
14.353 0.00149126 5.73917 3 
18.6624 1.43617 4.30378 3 
18.6626 1.43739 7.17439 3 
17.2263 2.87105 5.7401 3 
20.0988 2.8713 5.73949 3 
20.0994 0.00324474 5.73704 3 
17.2257 0.00242306 5.73808 3 
21.5352 1.43646 4.30316 3 
24.408 1.43639 4.30294 3 
21.5362 1.43801 7.17357 3 
24.4095 1.43816 7.17351 3 
22.9716 2.87151 5.73911 3 
22.9735 0.00367797 5.73629 3 
27.2793 1.43545 4.30372 3 
27.28 1.4364 7.17514 3 
25.8437 2.87127 5.73929 3 
25.846 0.0025299 5.73702 3 
1.43659 4.3048 4.30542 3 
1.43654 7.17527 4.30544 3 
1.43663 4.30497 7.17676 3 
1.43656 7.17508 7.17676 3 
2.87138 5.74004 5.74136 3 
0.00159638 5.74001 5.74069 3 
7.17636 4.30466 4.30656 3 
4.30622 4.3046 4.30619 3 
4.30619 7.17554 4.30623 3 
7.17631 7.17546 4.3066 3 
4.30613 4.30477 7.17713 3 
4.30611 7.17536 7.17716 3 
7.17622 4.30491 7.17729 3 
5.74119 5.74007 5.74179 3 
7.17622 7.17517 7.1773 3 
10.047 7.17516 4.3064 3 
10.0471 4.30496 4.30639 3 
10.0472 4.30515 7.17736 3 
8.6117 5.74005 5.74195 3 
10.0472 7.1749 7.17737 3 
11.4828 5.74005 5.74174 3 
15.7903 4.3053 4.30543 3 
12.9184 4.30518 4.30596 3 
12.9184 7.17489 4.30598 3 
15.7903 7.17467 4.30543 3 
12.9186 4.30536 7.1771 3 
15.7905 4.30543 7.17671 3 
12.9187 7.17465 7.1771 3 
14.3545 5.74 5.74131 3 
15.7906 7.17446 7.1767 3 
18.6625 4.30536 4.30487 3 
18.6625 7.17448 4.30487 3 
18.6627 4.3055 7.17623 3 
17.2265 5.73993 5.74085 3 
18.6627 7.1743 7.17621 3 
20.0987 5.73989 5.74037 3 
21.5351 4.30564 7.17579 3 
21.5348 4.30544 4.30443 3 
24.407 4.30543 4.30425 3 
21.5348 7.17438 4.30445 3 
24.407 7.17444 4.30424 3 
21.5351 7.17416 7.17578 3 
22.971 5.73991 5.74005 3 
24.4073 7.17412 7.17563 3 
24.4073 4.30574 7.17565 3 
27.2784 4.30524 4.30455 3 
27.2784 7.17474 4.30457 3 
27.2786 4.30548 7.17613 3 
25.8429 5.73996 5.7401 3 
27.2786 7.1745 7.17614 3 
1.43667 10.0462 4.30535 3 
1.4368 10.0457 7.1766 3 
2.87142 8.61081 5.74136 3 
2.87149 11.4821 5.7415 3 
0.00239604 11.4807 5.73992 3 
0.00199046 8.60983 5.74041 3 
4.30624 10.0468 4.30635 3 
7.17639 10.0465 4.30662 3 
4.30612 10.0464 7.17718 3 
5.74114 8.61086 5.74176 3 
7.17602 10.0458 7.17703 3 
5.74132 11.4822 5.74195 3 
10.0468 10.0457 4.30611 3 
8.61163 8.61045 5.74184 3 
10.0469 10.0449 7.17697 3 
11.4825 8.60974 5.74136 3 
8.61174 11.4815 5.74183 3 
11.4818 11.4799 5.74056 3 
12.918 10.0448 4.3053 3 
15.79 10.0442 4.30454 3 
12.9178 10.0438 7.17608 3 
14.3542 8.60923 5.74074 3 
15.7899 10.0431 7.17527 3 
14.3531 11.4785 5.73922 3 
18.6624 10.0437 4.30378 3 
17.2263 8.60884 5.74011 3 
18.6627 10.0425 7.17438 3 
20.0989 8.60853 5.73949 3 
17.2258 11.4775 5.73812 3 
20.0994 11.4767 5.73702 3 
24.4079 10.0435 4.30293 3 
21.5352 10.0434 4.30315 3 
21.5362 10.0418 7.17355 3 
22.9715 8.60834 5.73908 3 
22.9734 11.4763 5.73624 3 
24.4094 10.0418 7.17347 3 
27.2792 10.0446 4.30372 3 
25.8437 8.60865 5.73928 3 
27.2798 10.0436 7.17513 3 
25.8458 11.4775 5.73702 3 
1.4365 12.9179 4.30568 3 
1.43635 15.7894 4.30608 3 
1.43675 12.9172 7.17667 3 
1.43636 15.7891 7.1773 3 
2.87147 14.3537 5.74197 3 
0.00182237 14.3529 5.74046 3 
4.30643 12.9183 4.30669 3 
4.30664 15.7896 4.30705 3 
7.17685 12.9181 4.30696 3 
7.17743 15.7895 4.30743 3 
4.30632 12.9179 7.17754 3 
7.17636 12.9174 7.17732 3 
4.30659 15.7894 7.17812 3 
5.74176 14.3538 5.74246 3 
7.17719 15.7893 7.17812 3 
10.0472 12.9173 4.30636 3 
10.0481 15.7892 4.30708 3 
10.0471 12.9162 7.177 3 
8.61249 14.3534 5.74249 3 
10.0484 15.7888 7.17833 3 
11.4824 14.3522 5.74118 3 
12.918 12.9162 4.30531 3 
15.7898 12.9152 4.30444 3 
12.9191 15.7887 4.30649 3 
15.7907 15.7878 4.30606 3 
12.916 12.913 7.1742 3 
15.7879 12.9107 7.17191 3 
12.9172 15.7866 7.17561 3 
14.3532 14.3504 5.73951 3 
15.7885 15.7838 7.17309 3 
18.6626 12.9145 4.30358 3 
18.6632 15.7868 4.30536 3 
18.6626 12.909 7.17009 3 
17.226 14.3489 5.73832 3 
18.6647 15.7807 7.17113 3 
20.1007 14.3475 5.73678 3 
24.4077 15.7881 4.30367 3 
21.536 12.914 4.30261 3 
21.5362 15.7866 4.30398 3 
24.4089 12.9144 4.30223 3 
21.5394 12.9074 7.16811 3 
24.4145 12.9081 7.16825 3 
21.5438 15.7792 7.16754 3 
22.9756 14.3474 5.73528 3 
24.4115 15.7864 7.17127 3 
27.279 12.9166 4.30388 3 
27.2784 15.7889 4.30449 3 
27.2805 12.9145 7.17398 3 
25.845 14.3512 5.73777 3 
27.2791 15.7881 7.17517 3 
1.43632 18.6605 4.30632 3 
1.43624 18.6605 7.17776 3 
2.8715 17.225 5.74239 3 
2.87155 20.096 5.74255 3 
0.00141859 20.096 5.74127 3 
0.00146367 17.2248 5.74104 3 
4.30678 18.6606 4.30725 3 
7.17779 18.6605 4.30772 3 
4.30675 18.6605 7.17853 3 
5.74212 17.2251 5.74293 3 
7.17769 18.6605 7.1787 3 
5.74228 20.096 5.7431 3 
10.0487 18.6605 4.30754 3 
8.61332 17.225 5.74323 3 
10.0495 18.6605 7.17941 3 
11.4838 17.2247 5.74255 3 
8.61362 20.096 5.7435 3 
11.4843 20.096 5.74304 3 
15.7923 18.6603 4.30791 3 
12.9201 18.6604 4.30741 3 
12.9194 18.6603 7.17799 3 
14.3552 17.2241 5.74197 3 
15.7927 18.6596 7.17806 3 
14.3564 20.096 5.7432 3 
18.6636 18.6594 4.30735 3 
17.2278 17.2224 5.74165 3 
18.6673 18.6556 7.1775 3 
20.1015 17.2211 5.73988 3 
17.2298 20.096 5.74424 3 
20.0993 20.0961 5.74222 3 
21.5347 18.66 4.30567 3 
24.4069 18.6603 4.30434 3 
21.5367 18.6604 7.17484 3 
22.9727 17.2238 5.73861 3 
24.41 18.6601 7.1728 3 
22.9718 20.0961 5.73933 3 
27.2782 18.6604 4.30483 3 
25.844 17.2243 5.73883 3 
27.2786 18.6603 7.17598 3 
25.8438 20.0961 5.73916 3 
1.4364 21.5315 4.30632 3 
1.43652 24.4027 4.30607 3 
1.43627 21.5316 7.17777 3 
2.87158 22.967 5.74239 3 
1.43651 24.403 7.17732 3 
0.00158838 22.9673 5.74105 3 
4.30685 21.5314 4.30725 3 
7.17782 21.5314 4.3077 3 
7.17748 24.4024 4.30743 3 
4.30677 24.4024 4.30703 3 
4.30677 21.5314 7.17853 3 
7.17767 21.5314 7.1787 3 
4.30664 24.4026 7.17814 3 
5.74216 22.9669 5.74292 3 
7.17716 24.4027 7.17814 3 
10.0487 21.5314 4.30754 3 
10.0481 24.4027 4.30709 3 
10.0495 21.5315 7.17941 3 
8.61328 22.9669 5.74325 3 
10.0483 24.4032 7.17832 3 
11.4838 22.9672 5.74255 3 
12.9201 21.5314 4.30743 3 
15.7922 21.5317 4.30793 3 
12.919 24.4032 4.3065 3 
12.9194 21.5317 7.178 3 
15.7926 21.5325 7.17806 3 
14.3551 22.9678 5.74199 3 
15.7884 24.4083 7.1731 3 
15.7906 24.4042 4.30609 3 
12.917 24.4054 7.17559 3 
18.6636 21.5327 4.30735 3 
18.6632 24.4052 4.30538 3 
18.6673 21.5364 7.1775 3 
17.2277 22.9696 5.74168 3 
18.6646 24.4113 7.17112 3 
20.1015 22.971 5.73991 3 
21.5346 21.5321 4.3057 3 
24.4069 21.5318 4.30435 3 
21.5363 24.4055 4.30403 3 
24.4078 24.404 4.30369 3 
21.5368 21.5317 7.17486 3 
21.5438 24.4129 7.16758 3 
22.9727 22.9683 5.73862 3 
24.41 21.532 7.1728 3 
24.4116 24.4057 7.17127 3 
27.2782 21.5317 4.30484 3 
27.2786 24.4033 4.30451 3 
27.2786 21.5318 7.17596 3 
25.8441 22.9678 5.73885 3 
27.2793 24.4039 7.17519 3 
0.00254292 28.7114 5.73991 3 
1.43672 27.2742 4.30566 3 
2.87162 28.71 5.74148 3 
1.4369 27.2749 7.17669 3 
2.87162 25.8383 5.74197 3 
0.00203956 25.8392 5.74048 3 
4.30657 27.2738 4.30667 3 
7.17692 27.274 4.30696 3 
5.74138 28.7099 5.74194 3 
4.3064 27.2742 7.17753 3 
5.7418 25.8382 5.74246 3 
7.17635 27.2747 7.17731 3 
8.6117 28.7106 5.74181 3 
10.0472 27.2747 4.30635 3 
8.61248 25.8386 5.74248 3 
10.047 27.2759 7.17698 3 
11.4824 25.8398 5.74116 3 
12.9179 27.2758 4.30528 3 
15.7897 27.2768 4.30443 3 
12.9159 27.279 7.17417 3 
14.353 25.8416 5.73949 3 
15.7878 27.2813 7.1719 3 
18.6625 27.2775 4.30359 3 
17.2259 25.8432 5.73832 3 
18.6625 27.283 7.17009 3 
20.1007 25.8445 5.7368 3 
21.536 27.278 4.30264 3 
24.409 27.2776 4.30225 3 
21.5394 27.2846 7.16815 3 
22.9757 25.8446 5.73534 3 
24.4147 27.2839 7.16828 3 
27.2792 27.2755 4.3039 3 
25.8452 25.8409 5.73781 3 
27.2807 27.2775 7.17399 3 
2.87126 2.86951 8.61278 3 
0.00197614 2.87042 8.61231 3 
1.43656 1.43447 10.0486 3 
2.87084 2.86957 11.4846 3 
0.00154997 2.87028 11.4846 3 
5.74077 2.86969 8.61276 3 
4.30571 1.43408 10.0486 3 
7.17523 1.43513 10.0481 3 
5.74024 2.86998 11.4844 3 
8.61122 2.87028 8.61268 3 
11.4827 2.87065 8.61279 3 
11.4805 0.00281936 11.4828 3 
10.0461 1.4362 10.0478 3 
8.61069 2.87074 11.4842 3 
11.4824 2.87091 11.4844 3 
11.4821 0.00107447 8.61208 3 
8.61051 0.000114319 8.61187 3 
8.60922 0.00141483 11.4831 3 
14.3544 2.87092 8.61243 3 
14.3541 0.00227517 11.4841 3 
12.9183 1.43641 10.0483 3 
15.7903 1.43653 10.0477 3 
14.3547 2.8706 11.4847 3 
14.3528 0.00284619 8.61049 3 
17.2266 2.87097 8.6119 3 
20.0992 2.87127 8.61132 3 
18.6633 1.43665 10.0469 3 
17.2269 2.87032 11.4843 3 
20.0993 2.87051 11.4838 3 
17.2259 0.00364064 8.60921 3 
20.1006 0.00484733 8.60776 3 
17.2268 0.00193247 11.4828 3 
20.1015 0.00303954 11.4815 3 
22.972 2.87173 8.611 3 
21.5368 1.43761 10.0462 3 
24.4094 1.43795 10.0468 3 
22.9717 2.87118 11.4839 3 
22.976 0.00607828 8.60696 3 
22.9751 0.00471586 11.4824 3 
25.8438 2.8715 8.61152 3 
27.2796 1.43636 10.0479 3 
25.8433 2.8712 11.4843 3 
25.8466 0.00360823 8.60948 3 
25.8458 0.0030106 11.4837 3 
2.8712 5.74003 8.6128 3 
1.43633 4.305 10.0487 3 
1.43631 7.17503 10.0486 3 
2.87082 5.74003 11.4846 3 
0.00111897 5.73998 11.4847 3 
0.00147891 5.74002 8.61253 3 
5.74095 5.74005 8.61291 3 
4.30576 7.17523 10.0486 3 
4.30576 4.30488 10.0487 3 
7.17584 4.30514 10.0486 3 
7.17587 7.17495 10.0486 3 
5.74052 5.74006 11.4845 3 
8.61157 5.74004 8.61302 3 
11.483 5.74 8.61314 3 
10.047 4.30535 10.0488 3 
10.047 7.1747 10.0487 3 
8.61128 5.74004 11.4846 3 
11.483 5.74002 11.4848 3 
14.3548 5.73997 8.61296 3 
15.7908 4.30525 10.0487 3 
12.9189 4.30534 10.0489 3 
12.9189 7.17463 10.0489 3 
15.7909 7.17464 10.0487 3 
14.355 5.73997 11.4849 3 
17.2268 5.7399 8.61262 3 
20.0989 5.73988 8.61221 3 
18.6629 4.30521 10.0483 3 
18.663 7.17459 10.0483 3 
17.2269 5.73992 11.4846 3 
20.0989 5.73989 11.4843 3 
22.9711 5.73993 8.61195 3 
21.5351 4.30542 10.048 3 
21.5351 7.17439 10.048 3 
22.9708 5.73991 11.4843 3 
24.4071 7.17425 10.0481 3 
24.4071 4.30564 10.0481 3 
25.8428 5.73998 8.61212 3 
27.2783 4.30546 10.0484 3 
27.2783 7.17451 10.0484 3 
25.8424 5.73995 11.4845 3 
2.87122 8.61059 8.61277 3 
2.87127 11.4818 8.61284 3 
1.43648 10.0456 10.0485 3 
2.8708 8.6105 11.4846 3 
2.87085 11.4817 11.4846 3 
0.00237069 11.4802 8.61181 3 
0.0019165 8.60963 8.61231 3 
0.0015136 8.60968 11.4846 3 
0.00183891 11.4803 11.4844 3 
5.74078 8.61044 8.61275 3 
5.7408 11.4816 8.61276 3 
4.3057 10.046 10.0486 3 
7.17528 10.045 10.0481 3 
5.74028 8.61013 11.4843 3 
5.74019 11.481 11.4842 3 
8.61126 8.6098 8.61266 3 
11.4827 8.60938 8.61276 3 
8.61058 11.48 8.61189 3 
11.4822 11.479 8.6121 3 
10.0461 10.0439 10.0478 3 
8.61074 8.60936 11.4842 3 
11.4825 8.60913 11.4844 3 
8.60934 11.4787 11.4831 3 
11.4807 11.4772 11.4828 3 
14.3545 8.60903 8.61242 3 
14.3529 11.4772 8.61051 3 
12.9184 10.0436 10.0482 3 
15.7904 10.0434 10.0476 3 
14.3548 8.60935 11.4847 3 
14.3542 11.4778 11.484 3 
17.2267 8.60887 8.61192 3 
20.0992 8.60854 8.61132 3 
17.226 11.4763 8.60919 3 
20.1006 11.475 8.60772 3 
18.6633 10.0432 10.0469 3 
17.227 8.60961 11.4843 3 
20.0993 8.60932 11.4838 3 
17.2269 11.478 11.4827 3 
20.1015 11.4769 11.4815 3 
22.972 8.60815 8.61099 3 
22.9759 11.4739 8.60694 3 
21.5368 10.0423 10.0462 3 
22.9716 8.6087 11.4839 3 
22.9751 11.4752 11.4824 3 
24.4093 10.042 10.0468 3 
25.8437 8.60843 8.6115 3 
25.8465 11.4764 8.60947 3 
27.2796 10.0436 10.0479 3 
25.8433 8.60869 11.4843 3 
25.8457 11.4769 11.4836 3 
2.87127 14.3534 8.61322 3 
1.43634 12.917 10.0485 3 
1.43588 15.7887 10.0488 3 
2.87086 14.3533 11.4848 3 
0.0011081 14.352 11.4841 3 
0.00188334 14.352 8.6117 3 
5.74137 14.3534 8.61338 3 
4.30591 12.9175 10.0488 3 
7.17541 12.9163 10.048 3 
4.30637 15.7892 10.0495 3 
7.17668 15.7888 10.0491 3 
5.74098 14.3529 11.4847 3 
8.61131 14.3522 8.61242 3 
11.4827 14.3507 8.61256 3 
10.0444 12.9131 10.0459 3 
10.0458 15.7867 10.047 3 
8.60974 14.3505 11.4831 3 
11.4761 14.3438 11.4782 3 
14.3483 14.3438 8.60584 3 
12.9178 12.9125 10.0476 3 
15.788 12.9096 10.0443 3 
12.9199 15.7856 10.0496 3 
15.7762 15.7684 10.0316 3 
14.3548 14.3458 11.4846 3 
17.2229 14.3396 8.60153 3 
20.1046 14.3354 8.5974 3 
18.6641 12.9082 10.0421 3 
18.6638 15.7572 10.0224 3 
17.2242 14.3417 11.4763 3 
20.1114 14.3363 11.4715 3 
22.9881 14.3336 8.59459 3 
21.5433 12.9048 10.0396 3 
21.5743 15.7455 10.0084 3 
22.9853 14.3355 11.4782 3 
24.4146 12.9075 10.0435 3 
24.4151 15.7793 10.039 3 
25.8474 14.3475 8.60716 3 
27.2801 12.9142 10.0469 3 
27.2787 15.7867 10.0465 3 
25.8459 14.3477 11.4821 3 
2.87126 17.2249 8.61384 3 
2.87125 20.096 8.61411 3 
0.000757001 20.096 8.61306 3 
1.43556 18.6603 10.0494 3 
2.87089 17.2247 11.4852 3 
2.87091 20.096 11.4855 3 
0.000986338 17.2245 8.61264 3 
5.74197 17.225 8.61411 3 
5.74219 20.096 8.61445 3 
4.30665 18.6605 10.05 3 
7.17767 18.6605 10.0501 3 
5.74205 17.2248 11.4856 3 
5.74247 20.096 11.4862 3 
8.61272 17.2247 8.61376 3 
11.4853 17.2244 8.61507 3 
8.61323 20.096 8.61429 3 
11.4864 20.096 8.61627 3 
10.0482 18.6603 10.0493 3 
8.61229 17.2242 11.4852 3 
11.4791 17.2202 11.4806 3 
8.61348 20.096 11.4864 3 
11.4828 20.096 11.4845 3 
14.3508 17.2202 8.60881 3 
14.3546 20.096 8.6125 3 
12.9246 18.6607 10.0544 3 
15.7812 18.6508 10.0377 3 
14.3628 17.2228 11.4926 3 
14.3724 20.0961 11.5022 3 
17.2269 17.2151 8.6054 3 
20.1136 17.2082 8.59999 3 
17.2359 20.096 8.61228 3 
20.0982 20.0961 8.6156 3 
18.6848 18.6294 10.0388 3 
17.1943 17.1794 11.4346 3 
20.1959 17.121 11.3868 3 
17.2311 20.0961 11.3818 5 
20.0467 20.0961 11.5359 5 
22.9776 17.2243 8.60503 3 
22.9765 20.0961 8.60621 3 
21.5391 18.6707 10.0435 3 
22.9827 17.2083 11.4692 3 
22.967 20.0961 11.4844 3 
24.4078 18.6604 10.0459 3 
25.8441 17.2238 8.61006 3 
25.8435 20.096 8.61095 3 
28.712 17.2239 11.4842 3 
28.7115 20.096 11.4846 3 
27.2771 18.66 10.0481 3 
25.8428 17.2212 11.4813 3 
25.8405 20.096 11.4834 3 
2.87132 22.9671 8.61386 3 
0.00107483 22.9676 8.61266 3 
1.4356 21.5317 10.0494 3 
1.43597 24.4033 10.0488 3 
2.87092 22.9672 11.4852 3 
1.84646e-05 22.9681 11.4842 3 
5.74198 22.967 8.61413 3 
7.17665 24.4032 10.0491 3 
4.30667 21.5314 10.0501 3 
7.17764 21.5315 10.0501 3 
4.30641 24.4027 10.0495 3 
5.74204 22.9671 11.4857 3 
8.61268 22.9672 8.61377 3 
11.4852 22.9676 8.61505 3 
10.0482 21.5317 10.0493 3 
8.6122 22.9678 11.4851 3 
11.479 22.9719 11.4807 3 
10.0457 24.4054 10.047 3 
14.3507 22.9719 8.6088 3 
12.9245 21.5313 10.0544 3 
15.7812 21.5413 10.0377 3 
12.9197 24.4064 10.0496 3 
15.776 24.4237 10.0316 3 
14.3627 22.9693 11.4926 3 
17.2268 22.977 8.60542 3 
20.1135 22.9839 8.59998 3 
18.6848 21.5627 10.0388 3 
18.6637 24.4349 10.0224 3 
20.1959 23.0711 11.3868 3 
17.1942 23.0127 11.4346 3 
22.9777 22.9678 8.60502 3 
22.9827 22.9838 11.4692 3 
21.5391 21.5214 10.0435 3 
24.4152 24.4128 10.039 3 
21.5743 24.4466 10.0084 3 
24.4078 21.5317 10.0459 3 
25.8442 22.9682 8.61006 3 
27.2771 21.532 10.0481 3 
25.8428 22.9709 11.4812 3 
27.2788 24.4054 10.0466 3 
0.00249678 28.7119 8.61182 3 
2.87134 28.7103 8.61285 3 
0.00190002 28.7117 11.4844 3 
2.87137 25.8386 8.61326 3 
2.87089 28.7104 11.4846 3 
1.43645 27.275 10.0485 3 
2.87092 25.8388 11.4848 3 
0.00202953 25.84 8.61171 3 
0.00118723 25.84 11.4841 3 
5.74079 28.7105 8.61276 3 
5.74017 28.7111 11.4842 3 
5.74137 25.8386 8.61335 3 
5.74093 25.8391 11.4847 3 
7.17535 27.2757 10.048 3 
4.30595 27.2745 10.0488 3 
8.61122 25.8398 8.61238 3 
11.4826 25.8413 8.61251 3 
11.4759 25.8483 11.4782 3 
8.60963 25.8415 11.4831 3 
10.0442 27.279 10.0459 3 
14.3481 25.8483 8.60581 3 
14.3546 25.8463 11.4846 3 
15.7878 27.2824 10.0444 3 
12.9176 27.2795 10.0476 3 
17.2227 25.8524 8.60152 3 
20.1045 25.8566 8.59742 3 
17.2241 25.8503 11.4763 3 
18.664 27.2838 10.0421 3 
20.1113 25.8557 11.4715 3 
22.9882 25.8584 8.59461 3 
21.5433 27.2872 10.0396 3 
24.4147 27.2845 10.0435 3 
22.9854 25.8564 11.4783 3 
25.8475 25.8445 8.60718 3 
27.2802 27.2778 10.047 3 
25.846 25.8442 11.4822 3 
1.43605 1.4343 12.9207 3 
1.43558 1.43406 15.7927 3 
0.00101931 2.87002 14.3568 3 
2.87038 2.86951 14.3566 3 
4.30522 1.43422 12.9204 3 
7.17452 1.43568 12.92 3 
4.30473 1.4343 15.7924 3 
7.17388 1.43609 15.7923 3 
5.73974 2.87017 14.3563 3 
10.0453 1.43683 12.9198 3 
11.482 2.87105 14.3566 3 
11.4793 0.0036449 14.3559 3 
10.0444 1.43741 15.7926 3 
8.61015 2.87106 14.3563 3 
8.60821 0.00233857 14.3557 3 
12.9177 1.43654 12.9203 3 
15.7906 1.43568 12.9206 3 
12.917 1.43673 15.7932 3 
15.7898 1.43546 15.7933 3 
14.3528 0.00197956 14.3568 3 
14.3544 2.87036 14.3569 3 
18.6633 1.43539 12.9198 3 
17.2265 0.00067252 14.3565 3 
20.0988 2.87023 14.3563 3 
20.1002 0.00180987 14.3563 3 
18.6625 1.43561 15.7926 3 
17.2266 2.86999 14.3566 3 
21.5361 1.43652 12.9199 3 
24.4085 1.43717 12.9205 3 
21.5353 1.4363 15.7929 3 
22.9711 2.87081 14.3566 3 
24.4077 1.43651 15.7933 3 
22.9737 0.00335622 14.3572 3 
27.279 1.43592 12.9207 3 
27.2783 1.43538 15.7932 3 
25.8427 2.87083 14.3569 3 
25.8447 0.00203982 14.3573 3 
1.43586 4.30493 12.9207 3 
1.43587 7.17505 12.9207 3 
1.4354 4.30483 15.7926 3 
1.43537 7.17511 15.7926 3 
2.87035 5.74 14.3566 3 
0.000648429 5.73994 14.3567 3 
4.3053 4.30493 12.9205 3 
7.17539 4.30532 12.9204 3 
4.30532 7.17513 12.9205 3 
7.17542 7.1748 12.9203 3 
5.74008 5.74005 14.3564 3 
7.17495 4.30543 15.7924 3 
4.30484 4.30495 15.7924 3 
4.30483 7.17507 15.7924 3 
7.17498 7.17466 15.7924 3 
10.0467 4.30548 12.9205 3 
10.0468 7.17459 12.9205 3 
11.4827 5.74005 14.3567 3 
8.61091 5.74007 14.3564 3 
10.0463 4.30561 15.7926 3 
10.0464 7.1745 15.7926 3 
12.9187 4.30531 12.9208 3 
15.7908 4.30505 12.9208 3 
12.9188 7.17473 12.9207 3 
15.7909 7.17492 12.9207 3 
12.9184 4.30535 15.7928 3 
15.7905 4.30503 15.7927 3 
12.9184 7.17477 15.7928 3 
15.7905 7.17503 15.7927 3 
14.3547 5.74003 14.3568 3 
18.6628 4.30492 12.9204 3 
18.6628 7.17493 12.9204 3 
20.0985 5.73994 14.3564 3 
18.6624 4.30501 15.7924 3 
18.6625 7.17491 15.7924 3 
17.2267 5.73998 14.3566 3 
24.4067 4.30542 12.9205 3 
21.5348 4.30517 12.9203 3 
21.5348 7.17466 12.9203 3 
24.4067 7.17443 12.9205 3 
22.9704 5.73994 14.3564 3 
21.5344 4.30517 15.7924 3 
21.5344 7.17472 15.7924 3 
24.4062 7.17457 15.7926 3 
24.4062 4.3053 15.7927 3 
27.2779 4.3053 12.9207 3 
27.2778 7.1746 12.9207 3 
27.2774 4.30514 15.7928 3 
27.2774 7.17475 15.7928 3 
25.842 5.73993 14.3567 3 
1.43602 10.0457 12.9206 3 
2.87033 8.61047 14.3566 3 
1.43553 10.0459 15.7927 3 
2.87039 11.4817 14.3565 3 
0.0012418 11.4807 14.3568 3 
0.000989026 8.60987 14.3568 3 
4.30521 10.0458 12.9204 3 
7.17459 10.0444 12.92 3 
5.73962 11.4806 14.3562 3 
5.73973 8.60989 14.3563 3 
4.30472 10.0457 15.7924 3 
7.17391 10.0439 15.7923 3 
10.0454 10.0432 12.9197 3 
11.4821 8.60906 14.3565 3 
11.4794 11.4764 14.3558 3 
8.61022 8.60903 14.3562 3 
10.0445 10.0427 15.7926 3 
8.60829 11.4777 14.3557 3 
12.9178 10.0435 12.9202 3 
15.7907 10.0443 12.9205 3 
14.3544 8.6097 14.3568 3 
12.9171 10.0433 15.7932 3 
15.7899 10.0446 15.7932 3 
14.353 11.4781 14.3567 3 
17.2267 8.61002 14.3565 3 
18.6633 10.0446 12.9198 3 
20.0989 8.60969 14.3563 3 
20.1002 11.4782 14.3563 3 
18.6626 10.0444 15.7925 3 
17.2266 11.4794 14.3565 3 
21.5361 10.0434 12.9199 3 
24.4085 10.0428 12.9204 3 
21.5354 10.0437 15.7928 3 
24.4077 10.0434 15.7933 3 
22.9737 11.4766 14.3571 3 
22.9711 8.60907 14.3565 3 
27.279 10.044 12.9207 3 
27.2783 10.0445 15.7931 3 
25.8427 8.60906 14.3568 3 
25.8447 11.4779 14.3573 3 
1.43583 12.9171 12.9206 3 
1.43529 15.7887 12.9205 3 
0.000437784 14.3525 14.3564 3 
1.43537 12.9174 15.7925 3 
1.43491 15.789 15.792 3 
2.87047 14.3532 14.3564 3 
4.30551 12.9173 12.9205 3 
7.17461 12.9154 12.9198 3 
4.30612 15.7889 12.9208 3 
7.17636 15.7879 12.9207 3 
4.30504 12.9171 15.7924 3 
7.17378 12.9147 15.7925 3 
4.3057 15.7887 15.7924 3 
7.17562 15.7869 15.7932 3 
5.74051 14.3524 14.3565 3 
10.0422 12.9109 12.9178 3 
10.0434 15.7838 12.9185 3 
10.0404 12.9091 15.7925 3 
10.0415 15.7808 15.7947 3 
11.4719 14.3397 14.3528 3 
8.6086 14.349 14.356 3 
12.9146 12.9097 12.9178 3 
15.7907 12.9122 12.9205 3 
12.9019 15.7684 12.906 3 
15.7963 15.78 12.9261 3 
14.3465 14.3418 14.3541 3 
12.9124 12.9082 15.7941 3 
15.7878 12.9116 15.7953 3 
12.8927 15.7572 15.7938 3 
15.7806 15.7535 15.8024 3 
18.6653 12.9115 12.9177 3 
18.6724 15.7535 12.9104 3 
20.1066 14.3419 14.3588 3 
17.2265 14.3485 14.3565 3 
18.6625 12.9123 15.7925 3 
18.6568 15.7801 15.7868 3 
21.5407 12.9083 12.9189 3 
21.5603 15.7572 12.919 3 
24.4115 15.7809 12.9182 3 
24.4127 12.9093 12.9204 3 
22.9812 14.3399 14.3601 3 
21.5386 12.9099 15.7951 3 
24.4109 12.9111 15.7951 3 
21.5511 15.7686 15.8068 3 
24.4096 15.7841 15.7944 3 
27.2791 12.9148 12.9204 3 
27.2774 15.787 12.9196 3 
27.2783 12.9157 15.7932 3 
27.2767 15.7881 15.7922 3 
25.8444 14.3492 14.3569 3 
1.43486 18.6602 12.9205 3 
2.87056 20.0959 14.3564 3 
2.87051 17.2246 14.3564 3 
1.43448 18.6604 15.7914 3 
4.30661 18.6604 12.9213 3 
7.17823 18.6603 12.9223 3 
5.74186 17.2242 14.3571 3 
4.30621 18.6602 15.7923 3 
7.17766 18.6593 15.7937 3 
5.74257 20.0959 14.3576 3 
10.0484 18.6596 12.9226 3 
8.612 17.2224 14.3578 3 
10.0479 18.6556 15.7974 3 
11.4758 17.2151 14.3568 3 
8.61457 20.096 14.3598 3 
11.4826 20.096 14.3659 3 
12.9081 18.6509 12.9111 3 
15.8277 18.6737 12.9576 5 
14.3048 17.1794 14.3242 3 
14.2522 20.096 14.3611 5 
12.9091 18.6294 15.8148 3 
15.6404 18.2585 15.9426 5 
18.8126 18.2585 12.7702 5 
17.9752 20.0961 13.6072 5 
17.2265 17.262 14.3564 5 
20.1481 17.1795 14.3886 3 
16.4776 20.0961 15.1056 5 
18.6251 18.6738 15.7552 5 
20.2006 20.0961 14.3517 5 
21.5438 18.6295 12.8979 3 
24.4051 18.6557 12.9154 3 
22.9772 17.2153 14.356 3 
21.5448 18.651 15.8017 3 
24.4046 18.6597 15.7902 3 
22.9703 20.0961 14.3469 3 
27.2754 18.6594 12.9191 3 
25.841 17.2226 14.3551 3 
25.8384 20.096 14.353 3 
28.7105 20.096 14.3552 3 
27.2748 18.6604 15.7905 3 
28.7112 17.2243 14.3557 3 
2.87055 22.9673 14.3564 3 
1.43488 21.5317 12.9205 3 
1.43535 24.4032 12.9205 3 
1.43451 21.5315 15.7915 3 
1.43495 24.4029 15.792 3 
4.30661 21.5315 12.9214 3 
7.17822 21.5316 12.9223 3 
4.30612 24.403 12.9209 3 
7.17627 24.404 12.9207 3 
5.74183 22.9677 14.3571 3 
4.30623 21.5317 15.7923 3 
7.17765 21.5326 15.7937 3 
4.30572 24.4032 15.7924 3 
7.17561 24.4051 15.7932 3 
10.0483 21.5324 12.9226 3 