ITEM: TIMESTEP
15000
ITEM: NUMBER OF ATOMS
2001
ITEM: BOX BOUNDS pp pp pp
0.0000000000000000e+00 2.8712000000000000e+01
0.0000000000000000e+00 2.8712000000000000e+01
0.0000000000000000e+00 2.8712000000000000e+01
ITEM: ATOMS x y z 
1.29352 1.58132 1.55607 
2.90038 2.99376 2.86306 
0.123058 0.137013 2.86619 
2.92586 0.14725 2.89545 
2.83785 2.73179 0.0641437 
0.109231 2.93411 0.0186248 
3.02893 0.0815292 0.162024 
4.28492 1.3406 1.47712 
7.29412 1.37513 1.60734 
5.68272 2.85912 2.9791 
5.85682 2.87966 0.0680519 
5.76173 0.148736 2.9756 
10.0382 1.60581 1.45094 
8.7503 2.67153 3.01556 
11.4559 2.97822 2.88179 
8.65654 0.0712454 3.12769 
8.68544 2.79664 0.056864 
8.78695 0.0145513 0.108831 
11.4973 0.0997561 0.0107372 
12.7913 1.31951 1.47747 
15.7744 1.41165 1.36632 
14.4635 2.87349 3.01932 
14.3947 0.140305 2.84837 
14.2399 0.1189 0.0802088 
14.2443 2.70098 0.0674398 
18.673 1.37986 1.53907 
17.4652 2.81982 2.87464 
20.0202 2.70878 2.92357 
17.2488 0.086909 2.83709 
18.7622 4.05076 1.28952 
17.1887 2.71248 0.0872236 
21.7557 1.45679 1.2904 
24.2949 1.57277 1.33341 
22.824 2.92238 3.09526 
23.0934 0.161297 2.74386 
22.9178 3.03581 0.0122234 
28.5662 2.93183 2.82132 
27.0575 1.46163 1.50329 
25.7553 2.88387 2.81981 
25.5823 0.210886 2.87424 
1.43462 4.38835 1.45416 
1.51487 7.10889 1.58233 
2.98537 5.66271 2.8307 
0.108369 5.65468 2.76515 
4.46084 4.12434 1.30368 
7.12313 4.23771 1.40409 
4.1987 7.15034 1.44414 
7.07215 7.04356 1.41632 
5.84395 5.90109 3.0791 
10.0596 4.44028 1.27018 
10.013 7.21594 1.4193 
8.57 5.56807 2.80071 
10.1083 7.07547 4.09968 
11.5349 5.63794 2.72316 
11.5633 5.69209 0.0197233 
12.9944 4.27922 1.39146 
15.7912 4.28769 1.28561 
12.9289 7.10467 1.30934 
15.6251 7.11388 1.53448 
14.4168 5.72351 2.82788 
18.7155 7.16477 1.42463 
17.2847 5.49464 2.67171 
19.8482 5.72282 2.82938 
17.2641 5.80024 0.159443 
24.2907 4.25414 1.54029 
21.3283 4.25214 1.41787 
21.7505 7.06033 1.58133 
22.9951 5.6432 3.00437 
24.2927 6.81858 1.54661 
27.1732 4.1347 1.39242 
27.139 7.17289 1.33687 
25.9421 5.66968 2.8016 
1.34404 10.3236 1.5595 
2.89052 8.65942 2.86676 
2.76483 11.5148 2.98954 
0.132839 8.63554 2.79657 
2.69015 8.572 0.0803905 
0.282142 8.52231 0.0927414 
4.40275 10.0347 1.52321 
7.10216 9.7105 1.53025 
5.69217 8.57255 3.15023 
5.57416 11.4504 2.83691 
5.58218 8.53765 0.094305 
9.89977 10.0278 1.5667 
8.55111 8.42233 2.87041 
11.5236 8.67461 2.76034 
8.46971 11.4089 3.00405 
11.2896 11.4782 2.87127 
11.4474 8.63778 0.100359 
12.9884 9.96497 1.45664 
15.8574 10.2367 1.25896 
14.2454 8.49161 2.95618 
14.4311 11.3406 2.87742 
14.3698 8.61627 0.0138217 
18.6425 9.96371 1.32994 
17.1067 8.53763 2.8219 
20.0682 8.55765 2.85026 
17.2891 11.4367 2.63609 
20.1049 11.4818 2.75446 
17.1951 8.57796 0.0663948 
21.4314 9.96871 1.51783 
24.4144 10.0635 1.42258 
22.9703 8.63864 2.88017 
22.982 11.5392 2.72802 
24.5256 10.0621 4.08357 
28.6384 11.5464 2.98535 
27.1297 10.0421 1.31437 
25.7624 8.60636 2.73036 
25.8154 11.6559 2.87228 
1.45705 12.9042 1.31763 
1.36428 15.8089 1.49839 
2.91797 14.3632 3.06458 
4.06578 13.0012 1.60266 
7.04695 12.9162 1.37828 
4.30682 15.7574 1.38222 
7.17943 15.7947 1.36813 
5.62196 14.2438 2.90248 
5.56995 14.361 0.0584176 
10.029 12.7015 1.29114 
10.1349 15.6096 1.48967 
8.59037 14.1235 2.87011 
11.4716 14.2389 2.94909 
12.94 12.9287 1.41017 
15.6545 12.8044 1.29549 
12.9712 15.5958 1.51841 
15.8413 15.8196 1.45317 
12.861 12.8993 4.09463 
14.3834 14.3606 2.80424 
18.6926 12.9734 1.36405 
18.5111 15.7845 1.30372 
17.103 14.2375 2.85634 
20.1616 14.3613 2.71082 
21.5915 13.0187 1.32537 
24.3241 12.911 1.31542 
21.6733 15.6318 1.4966 
22.9038 14.3901 2.93947 
24.5324 15.9376 4.07781 
24.4957 15.8543 1.3819 
22.9478 14.469 0.0244877 
28.5303 14.4041 2.75656 
27.359 12.9746 1.29707 
27.2338 15.8631 1.37482 
25.7255 14.4175 2.76366 
25.9988 14.2232 0.00969019 
1.54468 18.8571 1.4196 
3.02296 17.1207 2.92848 
2.83366 20.2093 2.87824 
0.12374 17.3412 2.83452 
0.105667 20.3406 2.82493 
2.90318 20.0536 0.0398241 
4.31802 18.7722 1.61483 
7.19001 18.5136 1.29561 
5.72557 17.0855 2.93893 
5.98827 20.0315 2.68569 
5.70388 17.1254 0.0071214 
9.9945 18.5145 1.43725 
8.62694 17.1289 2.78393 
11.4495 17.1306 2.89921 
8.67488 20.0856 2.60351 
11.3015 19.9643 2.80218 
11.4912 17.1175 0.0509238 
11.5274 20.0187 0.0465872 
13.0233 18.7673 1.55628 
15.7549 18.6364 1.4808 
14.2759 17.3168 2.91682 
15.8622 18.7454 4.00366 
14.5856 20.3164 2.87961 
14.2834 17.1251 0.262371 
14.441 20.0855 0.131265 
18.5584 18.6717 1.53626 
17.3308 17.3088 2.77328 
20.1669 17.1637 2.81695 
17.2588 20.3382 2.71782 
20.0788 20.1527 2.6993 
17.099 17.3566 0.0989357 
19.9643 20.0651 0.107731 
17.2733 20.1652 0.00617333 
19.9919 17.4332 0.0780476 
21.5709 18.7037 1.41816 
24.3733 18.7293 1.51115 
23.0866 17.2513 2.81451 
22.9201 20.0182 2.94006 
22.9745 17.2071 0.0277112 
27.3215 18.7798 1.42635 
25.8581 17.3504 2.64263 
26.087 20.1017 2.78065 
28.5663 20.0226 0.000213917 
1.4403 21.5663 1.40143 
1.63391 24.5801 1.43354 
2.94295 22.991 2.74279 
2.80044 23.0349 0.0771791 
0.08993 23.1651 2.96262 
0.0368962 23.1673 0.00580075 
4.30805 21.6295 1.41297 
7.23308 21.5438 1.38496 
5.92684 22.9527 2.91948 
4.40273 24.4324 1.5415 
7.27004 24.4201 1.54027 
10.0849 21.5379 1.24319 
8.82081 22.9108 2.73977 
11.5352 22.9574 2.7292 
10.0725 24.3938 1.39763 
12.7743 21.5112 1.42165 
15.7356 21.8534 1.35082 
14.5581 22.9802 2.83941 
13.0384 24.4719 1.58027 
18.6247 21.7497 1.11342 
18.6373 24.4687 1.46359 
18.7548 21.597 3.95601 
17.1784 23.1462 2.83474 
18.5778 24.4528 3.97118 
20.1713 22.92 2.72737 
17.1187 23.0876 0.0146077 
21.5488 21.3816 1.37752 
24.5227 21.4521 1.47048 
21.4995 24.5685 1.52515 
22.993 23.0234 2.77075 
24.3956 24.4807 1.55936 
23.0006 22.7892 0.032932 
27.2474 21.5562 1.52972 
27.5179 24.4021 1.465 
25.7505 23.0125 2.98554 
25.8895 22.9687 0.0983379 
0.191312 28.6832 0.0616712 
1.5023 27.2903 1.53858 
3.10521 25.8556 2.91507 
0.122754 25.9251 3.0675 
0.139963 26.0294 0.11225 
3.03387 26.0314 0.163651 
4.62252 27.3417 1.51987 
7.30515 27.3467 1.70984 
5.95552 25.882 2.93862 
5.98671 25.8095 0.0939359 
11.3945 28.5872 2.86825 
8.66864 25.8932 0.0349151 
9.87869 27.4336 1.39932 
8.8194 25.8457 2.97815 
11.459 26.0136 2.74742 
11.4102 25.9876 0.0481503 
15.8362 24.6806 1.40557 
13.1482 27.2811 1.36503 
15.7501 27.2934 1.49741 
14.422 25.969 2.95202 
17.3163 28.6839 0.0843326 
20.1545 28.6767 2.8936 
18.6037 27.3526 1.64616 
17.2276 25.9311 2.83604 
20.168 25.9499 2.82262 
21.5425 27.289 1.35073 
22.7399 26.037 2.90335 
24.3585 27.2999 1.20135 
22.9085 25.7868 0.0431523 
27.2345 27.4414 1.4136 
25.8735 25.8917 2.84308 
25.8804 25.7955 0.087119 
1.52856 1.60754 4.31464 
1.36724 1.35633 7.21612 
2.96171 2.75676 5.97062 
0.0522286 2.90849 5.83343 
0.0592745 0.0928992 5.70931 
4.36352 1.56841 4.40296 
7.33254 1.57857 4.47673 
4.21409 1.40462 7.45257 
7.21107 1.39658 7.22946 
5.9053 2.84124 5.89459 
10.1681 1.4084 4.38885 
10.1868 1.43388 7.22501 
8.61426 2.89326 5.80539 
11.5269 2.90529 5.83609 
8.68913 0.0128093 5.87903 
12.8592 1.48757 4.34511 
15.8046 1.41425 4.14352 
12.8612 1.35715 7.14557 
15.7901 1.35915 7.40425 
14.3649 2.80964 5.68048 
14.3686 0.0859558 5.72568 
18.7446 1.44989 4.3759 
18.7342 1.32342 7.31625 
17.2589 2.91483 5.6824 
20.1699 2.79934 5.68688 
20.0385 0.0382996 5.90313 
17.2056 0.0247345 5.69592 
21.4438 1.37945 4.46333 
24.3973 1.47929 4.32948 
21.5594 1.32218 7.08747 
24.4377 1.49925 7.04996 
22.8889 2.87557 5.76921 
23.0501 0.0442336 5.83813 
21.5866 3.95294 7.19458 
27.2918 1.57621 4.32853 
27.2641 1.29886 7.30297 
25.892 2.8603 5.84114 
25.8869 0.0393524 5.68722 
1.47978 4.29969 4.4871 
1.52552 7.23628 4.49179 
1.27116 4.50755 7.23936 
1.27024 7.30395 7.11546 
2.75993 5.64855 5.8516 
7.06288 4.29668 4.37502 
4.49912 4.22439 4.41625 
4.14076 7.34426 4.57821 
7.22179 7.28257 4.54263 
4.41441 4.45068 7.21926 
4.20503 7.18904 7.17499 
7.25109 4.18266 7.29576 
5.63373 5.8516 5.80665 
7.22314 7.03216 7.22719 
10.1796 4.42926 4.26556 
10.0627 4.34198 7.27378 
8.67807 5.69116 5.70783 
10.1505 7.03469 7.28369 
11.5628 5.6916 5.72401 
15.8379 4.26436 4.33071 
13.0754 4.33172 4.13285 
12.7997 7.13333 4.18158 
15.8173 6.97361 4.33364 
12.9838 4.43356 7.10298 
15.8208 4.33352 7.08406 
12.9748 7.41815 7.24471 
14.3147 5.73669 5.629 
15.6687 7.34997 7.03282 
18.629 4.25327 4.30205 
18.6127 7.13032 4.30426 
18.5052 4.15852 7.13526 
17.2595 5.75545 5.89388 
18.4691 7.3195 7.17885 
20.0651 5.60349 5.80827 
21.4343 4.39558 4.37868 
24.3995 4.345 4.34024 
21.4856 7.04579 4.40605 
24.4796 7.30779 4.31242 
21.5589 7.11943 7.11514 
22.9627 5.72376 5.71849 
24.4913 7.02157 7.15555 
24.4567 4.35633 6.98359 
27.3187 4.3711 4.37603 
27.2619 7.17738 4.22645 
28.5192 5.89335 5.71817 
27.2985 4.28319 7.16181 
25.877 5.75664 5.62548 
27.2229 6.96099 7.26027 
1.42447 10.158 4.28395 
1.32291 10.0928 7.40418 
2.81853 8.77 5.89949 
2.91333 11.491 5.72064 
0.172827 11.4311 5.84611 
4.1534 10.1497 4.41418 
7.09254 9.87522 4.6009 
4.15204 10.2495 7.3362 
5.65393 8.69631 5.84013 
7.28128 9.98125 7.16009 
5.91329 11.5253 5.86601 
10.117 9.87602 4.19019 
8.73779 8.61262 5.83496 
10.2163 10.0048 7.05316 
11.5841 8.67584 5.70115 
8.71353 11.4802 5.94927 
11.3787 11.5603 5.75762 
12.7162 10.1317 4.26455 
15.7598 9.97027 4.39175 
12.8139 10.1498 7.19728 
14.2499 8.82415 5.74015 
15.6968 9.98031 7.39248 
14.501 11.4749 5.87793 
18.6893 9.9779 4.25197 
17.0848 8.6296 5.70315 
18.7416 10.0813 7.04334 
20.1138 8.50453 5.78994 
17.3023 11.3879 5.64613 
20.0265 11.3764 5.76786 
21.5337 9.95245 4.27377 
21.4779 9.93603 7.27661 
22.9779 8.53291 5.80641 
22.9249 11.1555 5.7499 
24.4019 9.98769 7.10535 
27.3651 9.99778 4.27249 
28.6379 8.82098 5.63851 
26.0666 8.62642 5.73495 
27.1708 9.92239 7.47413 
25.9173 11.2414 5.74708 
1.53251 13.0257 4.45598 
1.32526 15.8097 4.22102 
1.52268 13.0499 7.17197 
1.38363 15.8731 7.272 
3.08019 14.3187 5.87251 
4.32466 12.9498 4.57618 
4.34886 15.7254 4.47645 
7.13786 12.827 4.35305 
7.16311 15.7312 4.23 
4.36369 12.7903 7.45227 
7.27033 12.8908 7.24719 
4.2809 15.7335 7.35687 
5.72546 14.2203 5.84227 
7.3738 15.6523 7.13505 
9.95417 12.8944 4.36546 
10.0617 15.7105 4.31772 
10.1284 13.0481 7.11729 
8.62917 14.4917 5.68569 
10.2049 15.6687 7.1349 
11.4043 14.337 5.61019 
15.9088 12.7258 4.21921 
12.8771 15.7642 4.24896 
15.7215 15.8422 4.25099 
12.9379 12.9469 7.19921 
15.8071 13.0139 7.04481 
12.9268 15.7817 7.32706 
14.3352 14.2547 5.81119 
15.8119 15.8338 7.15333 
18.7242 12.6387 4.14832 
18.6586 15.6171 4.16039 
18.6006 12.8745 7.04121 
17.34 14.2034 5.47411 
18.7192 15.7638 6.92963 
20.1707 14.1851 5.71333 
21.5104 12.6681 4.27438 
21.5685 15.6393 4.29859 
24.2975 12.8214 4.35527 
21.6133 12.7319 6.98396 
24.4894 12.8081 7.09019 
21.4471 15.6993 6.99258 
22.9764 14.1424 5.57626 
24.412 15.7867 7.02035 
27.1933 12.7949 4.52215 
27.2505 15.8847 4.21392 
28.5855 14.2954 5.71744 
27.4035 12.8923 7.26177 
25.8339 14.3456 5.55939 
27.3216 15.8161 7.03488 
1.17475 18.8098 4.16241 
1.4959 18.6509 6.9563 
2.87047 17.0997 5.73727 
3.0542 20.1498 5.62774 
0.0472446 20.2081 5.72598 
0.0629652 17.2423 5.74543 
4.46433 18.6136 4.17338 
7.14611 18.6911 4.31279 
4.44926 18.7763 7.10106 
5.81086 17.1574 5.79123 
7.17338 18.6322 7.19448 
5.87255 20.0362 5.6435 
10.243 18.6605 4.36507 
8.71927 17.2528 5.79897 
10.1143 18.5833 7.32559 
11.4002 17.1501 5.76114 
8.74598 20.0006 5.72856 
11.5435 20.1765 5.71168 
12.9556 18.7492 4.31289 
12.8505 18.5461 7.03305 
14.3989 17.1913 5.84169 
15.8051 18.6497 7.02423 
14.4719 20.2628 5.70852 
18.5815 18.8777 4.14988 
17.0994 17.3064 5.54592 
18.6498 18.7418 6.84458 
20.0348 17.3263 5.5696 
17.0849 20.0794 5.60998 
20.0092 20.2479 5.59919 
21.371 18.8164 4.26439 
24.3182 18.7981 4.34265 
21.306 18.7039 6.97021 
23.0049 17.2583 5.62531 
24.5206 18.6221 7.0515 
22.966 19.9958 5.78842 
27.5102 18.8006 4.32719 
25.8435 17.3216 5.62443 
27.2518 18.685 7.19627 
25.8435 19.9964 5.59739 
1.74305 21.7295 4.34866 
1.6053 24.5858 4.39845 
1.41068 21.5759 7.16619 
2.97832 23.1608 5.69094 
1.41364 24.4739 7.18143 
0.121068 22.9067 5.75156 
4.29845 21.596 4.30459 
7.43181 21.4921 4.21919 
7.20786 24.437 4.15816 
4.42263 24.4993 4.21896 
4.30013 21.6527 7.03718 
7.13756 21.6043 7.14945 
4.34815 24.4842 7.20912 
5.81237 22.9335 5.5442 
7.15205 24.2846 7.16929 
10.0145 21.4779 4.20585 
10.1189 24.2017 4.24222 
10.0273 21.6231 7.1256 
8.56462 23.0431 5.662 
10.1349 24.5657 7.2046 
11.44 23.1687 5.83054 
12.9586 21.3131 4.19668 
15.836 21.6937 4.25681 
12.9334 24.4695 4.22002 
13.0972 21.5585 7.0453 
15.9847 21.6472 6.95969 
14.3877 22.9984 5.72226 
15.9985 24.6065 7.03591 
18.6676 21.4085 7.03678 
17.4739 23.0141 5.59515 
18.6799 24.39 7.04318 
20.1377 23.021 5.57478 
21.607 21.4435 4.21391 
24.3604 21.4834 4.39004 
21.4657 24.5055 4.35718 
24.4807 24.5081 4.38645 
21.5119 21.5986 7.06435 
21.5251 24.4549 7.0916 
22.9151 23.0362 5.49033 
24.461 21.5306 6.9038 
24.4112 24.3839 7.14172 
27.2527 21.603 4.35494 
27.3356 24.4815 4.29829 
27.3606 21.6187 7.24683 
25.8415 22.8901 5.66984 
27.2862 24.338 7.20465 
1.38664 27.5282 4.40801 
2.92031 28.6846 5.91315 
1.56288 27.3467 7.36635 
3.07276 25.8647 5.723 
0.157819 26.1322 5.87418 
4.23621 27.4725 4.45405 
7.09232 27.3751 4.48027 
5.66284 28.697 5.95532 
4.36936 27.1916 7.30255 
5.72396 25.8081 5.90512 
7.18239 27.282 7.21222 
10.0938 27.2687 4.35456 
11.4557 28.6194 5.91968 
8.57692 25.8784 5.67783 
10.2312 27.1369 7.25937 
11.4225 25.831 5.55648 
15.814 24.6157 4.38855 
12.9822 27.4222 4.10353 
15.8896 27.479 4.28319 
13.0992 24.6587 7.2918 
12.9502 27.1682 6.93879 
14.3987 25.8642 5.63972 
15.8338 27.3284 7.0617 
18.7549 27.3482 4.32486 
17.3839 26.0229 5.5434 
18.6087 27.1349 7.1616 
20.1752 25.7594 5.69939 
21.5216 27.2963 4.4181 
24.5227 27.3654 4.24024 
21.5351 27.0568 7.29882 
22.9811 25.8098 5.66865 
24.4589 27.2359 7.0067 
27.3541 27.4912 4.10624 
26.0766 25.893 5.6605 
27.3826 27.2184 7.31652 
2.81625 3.07932 8.62144 
0.0227038 2.87647 8.52327 
0.0522636 0.123592 8.71982 
2.73182 0.0507014 8.72142 
1.23603 1.37721 10.3128 
2.89629 2.85718 11.4697 
0.0439749 3.00513 11.5002 
5.72548 2.81821 8.63982 
5.68768 0.0240334 8.70841 
4.18604 1.50865 10.0156 
7.31177 1.23741 9.95455 
5.75505 2.69489 11.3695 
5.6736 0.128887 11.6221 
8.7131 2.77 8.62311 
11.5447 2.86858 8.58826 
11.5885 0.041961 11.5715 
10.0361 1.4164 10.2264 
8.64097 2.87485 11.5346 
11.4122 2.90545 11.5221 
14.2227 2.8495 8.63648 
14.4466 0.00492918 11.5096 
12.7542 1.57403 10.065 
15.6615 1.3685 10.0254 
14.4268 2.93964 11.5325 
17.1012 2.77667 8.56744 
20.1674 2.80787 8.54835 
18.7212 1.49481 10.0061 
17.2757 2.73922 11.3777 
20.2158 2.79614 11.3711 
23.195 2.82844 8.70912 
21.6196 1.29502 9.97999 
24.5317 1.31807 10.0154 
22.9847 2.77193 11.287 
25.8575 2.8299 8.6283 
27.1106 1.33455 10.118 
25.7091 2.8115 11.4051 
28.5643 0.022102 11.6842 
2.95067 5.74824 8.65999 
1.4462 4.3802 9.99975 
1.46232 7.17663 10.0732 
2.98222 5.83108 11.5908 
0.0112367 5.7516 11.5366 
5.78333 5.58426 8.65489 
4.4292 7.16835 10.1695 
4.24426 4.2647 10.1555 
7.23998 4.2589 10.0769 
7.29789 7.05246 10.0364 
5.92828 5.70142 11.3507 
8.60684 5.71622 8.56175 
11.5627 5.67863 8.6005 
10.0922 4.17514 10.1977 
10.0077 7.24434 10.0192 
8.65765 5.88488 11.5651 
11.5584 5.80617 11.4788 
14.3709 5.78281 8.60551 
15.7705 4.194 10.0603 
13.0634 4.44555 10.1151 
12.9825 7.10972 10.0422 
15.9593 7.15773 10.0787 
14.5369 5.5313 11.501 
17.173 5.77603 8.59368 
20.1031 5.76744 8.45502 
18.5403 4.27899 9.99258 
18.698 7.10538 9.91186 
17.4236 5.76264 11.5191 
20.1583 5.65803 11.3838 
22.9931 5.77253 8.63968 
21.5518 4.45785 10.058 
21.4118 7.14913 9.99074 
22.982 5.60944 11.5093 
24.3435 7.16964 10.1334 
24.4682 4.42545 9.95575 
28.6831 5.77216 8.65694 
25.8817 5.68475 8.61445 
27.1881 4.30501 10.0836 
27.3671 7.09216 10.1711 
25.6987 5.6152 11.5626 
2.91274 8.53865 8.72894 
2.90028 11.3951 8.77076 
1.24125 9.92164 10.1402 
2.7475 8.5734 11.5566 
2.9542 11.5408 11.6287 
5.91873 8.69021 8.58068 
5.9115 11.4359 8.79172 
4.33027 9.8992 10.0981 
7.31271 10.0266 10.1998 
5.85565 8.64561 11.4265 
5.7779 11.4485 11.4726 
8.60996 8.541 8.57974 
11.5012 8.82209 8.79098 
8.64842 11.4436 8.64034 
11.3375 11.5821 8.72553 
10.1292 10.1437 10.0509 
8.78107 8.62318 11.4061 
11.5616 8.83624 11.4361 
8.76122 11.4135 11.6388 
11.6312 11.336 11.5184 
14.4189 8.58943 8.79385 
14.4012 11.4911 8.72629 
13.0128 10.1798 10.0409 
16.0467 9.98664 9.95935 
14.4025 8.9168 11.5254 
14.4903 11.7041 11.5606 
17.1647 8.55754 8.47249 
20.1492 8.51894 8.54678 
17.1941 11.4456 8.39337 
20.1101 11.4455 8.64473 
18.7554 9.91078 10.2411 
17.4762 8.61047 11.6377 
20.1579 8.54885 11.5662 
17.1881 11.6462 11.5582 
20.1385 11.6302 11.5439 
22.9445 8.63263 8.71858 
22.8051 11.3739 8.63066 
21.2645 10.0931 10.2306 
22.866 8.6324 11.3916 
22.8082 11.5758 11.5208 
24.1805 10.1698 10.1474 
28.6797 11.5028 8.8018 
28.5446 8.46901 8.7421 
25.6719 8.46025 8.76449 
25.6821 11.487 8.68523 
28.6155 8.53911 11.6715 
28.6699 11.5903 11.6128 
27.2192 10.0229 10.1896 
25.8476 8.48002 11.5896 
25.8764 11.1911 11.5547 
3.01993 14.3691 8.63547 
1.37046 12.7198 10.1597 
1.37766 15.6969 9.94422 
2.84564 14.2775 11.5589 
0.0276596 14.3215 11.5505 
5.90317 14.131 8.81801 
4.34954 12.9043 10.1383 
7.39365 12.7044 10.2034 
4.37131 15.7252 10.1195 
7.31922 15.6998 10.1321 
5.76711 14.2272 11.4277 
8.63875 14.3371 8.77513 
11.7213 14.4727 8.7848 
10.2226 13.0371 10.2336 
10.0945 15.8052 10.0905 
8.77626 14.3358 11.6486 
11.6102 14.6421 11.5274 
14.4456 14.3257 8.72571 
13.0541 12.9879 10.1089 
15.862 13.0082 9.80922 
12.9997 15.9016 10.0995 
15.8615 15.6678 9.97932 
14.5243 14.5215 11.5516 
17.4794 14.3885 8.36471 
20.1031 14.3093 8.48612 
18.5221 12.8487 10.0242 
18.6239 15.7369 9.72823 
17.4615 14.4397 11.3562 
20.1477 14.3848 11.2839 
23.0704 14.2213 8.29513 
21.5258 12.9338 9.93912 
21.6569 15.9501 9.98193 
22.9435 14.2413 11.5736 
24.2291 12.7983 10.2271 
24.2192 15.7234 9.92836 
28.6112 14.4275 8.76735 
25.6704 14.4542 8.65922 
26.9734 12.9075 9.97396 
27.2452 15.74 10.1438 
26.0369 14.5158 11.6146 
2.89996 17.5371 8.48658 
2.70531 19.95 8.66856 
1.71178e-05 20.1632 8.42076 
1.29843 18.6891 9.95994 
2.90599 17.3519 11.3627 
2.99013 19.8994 11.4177 
5.72773 17.03 8.56957 
5.89499 20.3099 8.45392 
4.63163 18.576 9.99618 
7.26932 18.6193 10.0174 
5.7846 17.2379 11.3817 
5.90899 19.9909 11.5027 
8.64545 17.2787 8.55056 
11.3287 17.2226 8.67045 
8.52434 20.2695 8.37359 
11.3475 20.1171 8.46763 
9.92482 18.8871 10.1527 
8.75817 17.295 11.6287 
11.581 17.3883 11.4894 
8.51986 20.1766 11.5413 
11.6083 20.345 11.3881 
14.4789 17.3105 8.55559 
14.3021 20.2298 8.5012 
12.8272 18.7494 9.98711 
15.6424 18.7455 9.89336 
14.3458 17.2199 11.5586 
14.1951 20.1246 11.2601 
17.2826 17.2182 8.23785 
20.2819 17.2173 8.40134 
17.1335 19.9823 8.40749 
20.0105 19.9966 8.46925 
18.7915 18.6528 9.89574 
17.1712 17.2509 11.3659 
20.0905 17.1789 11.2496 
17.3331 20.0911 11.3032 
19.8208 20.077 11.624 
23.1538 17.3143 8.50342 
23.0089 20.1118 8.64636 
21.5638 18.7705 9.97538 
22.9073 17.4103 11.3737 
22.9498 20.0317 11.3553 
24.4301 18.6788 9.9285 
28.5448 17.0732 8.62752 
25.805 17.0597 8.50152 
25.779 20.2207 8.41912 
28.5748 17.1706 11.3356 
28.5797 20.0313 11.4221 
27.2569 18.5918 9.82702 
25.7355 17.3468 11.3913 
25.7594 20.1414 11.3836 
2.97075 22.843 8.62443 
0.0168697 23.1593 8.67114 
1.2332 21.4507 10.1843 
1.51677 24.3738 10.058 
3.01698 22.8196 11.5343 
5.8472 22.982 8.59066 
7.25632 24.3254 10.0868 
4.39905 21.2287 10.0845 
7.32 21.605 10.0604 
4.47785 24.3681 9.959 
5.95944 22.8264 11.4858 
8.7687 23.1957 8.61351 
11.4588 23.2053 8.44297 
10.1169 21.5601 10.0203 
8.83986 22.9409 11.5361 
11.4105 23.0468 11.313 
14.42 23.2063 8.44399 
12.7761 21.6996 9.71725 
15.7729 21.4909 10.0636 
13.0353 24.5485 9.88275 
15.7397 24.4928 10.081 
14.2373 22.9546 11.3857 
17.1437 22.9803 8.69663 
20.0751 23.0272 8.62088 
18.7159 21.3574 9.82277 
18.6042 24.4519 9.94533 
20.0215 22.9834 11.3201 
17.2374 22.9049 11.4317 
23.0081 23.0225 8.47776 
22.8835 22.7947 11.3342 
21.5166 21.4041 10.0126 
24.4371 24.3728 9.9925 
21.7262 24.443 10.1056 
24.4871 21.4746 9.79391 
25.8273 23.006 8.51275 
27.2837 21.4264 9.89056 
25.8788 23.0204 11.3944 
27.2301 24.5289 10.0998 
28.5605 22.9973 11.45 
2.9151 25.8047 8.66388 
2.8271 28.5711 11.6164 
1.26135 27.3117 10.1622 
2.96138 25.7234 11.4623 
5.83527 25.8234 8.58208 
5.88466 25.8023 11.5785 
7.00241 27.3706 10.2528 
4.35144 27.1982 10.2272 
11.4476 28.6695 8.70474 
8.68131 28.6176 8.63767 
8.48038 25.8793 8.61986 
11.4784 25.987 8.71511 
11.4773 25.9874 11.3943 
8.55621 25.8472 11.6124 
8.55846 28.6508 11.6282 
9.84966 27.3015 10.2611 
10.101 24.6642 9.98271 
14.0631 28.6801 8.57107 
14.3309 26.1727 8.61783 
14.2766 25.8994 11.4685 
15.8745 27.3294 10.0712 
12.8454 27.3117 10.111 
17.2503 28.6105 8.61598 
20.1599 28.6577 8.59866 
17.1024 25.8566 8.53981 
20.1113 25.8928 8.6274 
17.3155 25.9149 11.4801 
18.5648 27.3178 9.95699 
20.1082 25.9165 11.427 
17.3783 28.6648 11.4453 
20.1332 28.6364 11.4067 
23.0295 28.4986 8.54091 
23.0585 25.7855 8.7761 
21.6013 27.3388 10.1966 
24.4375 27.1939 9.961 
23.1611 25.644 11.4581 
23.0511 28.6523 11.3606 
28.6738 25.7574 8.64676 
25.8898 28.6735 8.48642 
25.881 25.6559 8.51266 
25.6647 28.5872 11.5652 
27.1647 27.365 9.79254 
25.7697 25.9327 11.4556 
28.6402 25.8691 11.7251 
1.33357 1.42395 13.1422 
1.39908 1.38737 16.0928 
0.0265614 2.85251 14.4794 
2.95255 2.85851 14.5328 
4.28767 1.50331 13.1839 
7.25473 1.48982 12.9338 
4.29976 1.20783 15.9645 
7.02089 1.30192 15.8407 
5.83288 2.86253 14.4786 
9.86815 1.38299 13.0577 
11.5387 2.72427 14.2593 
11.3873 0.0807158 14.2291 
10.0567 1.42034 15.9086 
8.6399 2.71114 14.4475 
13.0841 1.4146 12.8573 
16.0401 1.59673 12.9257 
13.0625 1.21297 15.8374 
15.9643 1.2637 15.7848 
14.4878 0.0456863 14.3876 
14.2979 2.85271 14.5709 
18.8022 1.31057 12.7832 
17.2897 0.0427699 14.2691 
20.1484 2.89628 14.155 
20.1735 0.112117 14.3004 
18.6893 1.41177 15.8214 
17.3409 3.03726 14.357 
21.5904 1.44339 12.9638 
24.4745 1.39976 12.819 
24.5066 3.95111 12.9244 
21.5411 1.4202 15.7792 
22.8767 2.73083 14.4424 
24.3438 1.28569 15.7965 
27.1182 1.4456 13.0924 
27.2492 1.38116 15.8892 
28.689 0.024132 14.3675 
25.6481 2.78864 14.5292 
1.48143 4.33866 13.0069 
1.52928 7.16551 12.9942 
1.34075 4.37511 15.7818 
1.51509 7.31727 15.8668 
2.88922 5.78178 14.4284 
4.34099 4.11122 12.8785 
7.29341 4.20821 12.8483 
4.42273 7.29301 12.719 
7.37808 7.25883 12.8334 
5.85091 5.55835 14.2198 
7.23705 4.34614 15.7139 
4.23529 4.3976 15.7077 
4.29292 7.14929 15.7133 
7.35854 7.239 15.8405 
10.3554 4.39233 12.8912 
10.3395 7.13795 12.9406 
11.7486 5.74022 14.31 
8.61761 5.72311 14.1991 
10.1829 4.17544 15.6618 
10.2667 7.25164 15.7598 
12.8592 4.30272 12.7627 
15.8394 4.34529 13.018 
13.1706 7.18467 12.8471 
15.9961 7.25908 12.7438 
12.9935 4.32164 15.8564 
15.771 4.24094 15.8958 
13.1336 7.15112 15.7817 
15.908 7.06776 15.7376 
14.4179 5.66034 14.4049 
18.7674 4.20308 12.61 
18.7555 7.12301 12.9816 
20.004 5.45031 14.3319 
18.6956 4.34719 16.0262 
18.6364 7.13624 15.8879 
17.5171 5.64101 14.5281 
21.6985 4.31885 12.8748 
21.397 7.04228 12.9791 
24.4635 7.1387 12.9983 
23.0516 5.63129 14.3439 
21.6476 4.32101 15.7063 
21.6612 7.21943 15.8482 
24.2259 7.08633 15.8572 
24.3257 4.31688 15.8798 
27.2023 4.31251 12.8359 
27.1024 6.96046 12.8834 
28.6767 5.70802 14.388 
27.2119 4.20099 15.7383 
27.2408 7.16066 15.9431 
25.8762 5.6337 14.4758 
1.27899 10.0942 12.998 
2.87013 8.4458 14.3418 
1.44157 10.1814 15.8553 
2.89063 11.5148 14.5005 
0.147553 11.5058 14.4552 
4.13465 10.0415 12.91 
7.31259 9.93896 12.9226 
5.70334 11.3582 14.2701 
5.50207 8.75051 14.3034 
4.26307 10.0368 15.824 
7.29323 9.97387 15.6952 
10.1178 10.0451 12.7896 
11.5857 8.64025 14.3381 
11.5577 11.4134 14.3459 
8.82277 8.54732 14.3275 
10.1347 10.0056 15.6914 
8.67067 11.3167 14.4378 
12.9567 9.90187 12.9844 
15.8605 9.9404 12.8711 
14.5132 8.63716 14.2835 
12.9931 10.043 15.8286 
15.9031 9.89225 15.9759 
14.4121 11.4453 14.4635 
17.1845 8.54216 14.2782 
18.8399 10.1287 12.9592 
20.1234 8.5828 14.2833 
20.0615 11.5807 14.3074 
18.7265 9.9374 15.8249 
17.2441 11.3665 14.4697 
21.6519 9.98447 13.0623 
24.4099 9.99966 12.9532 
21.6121 10.1334 15.7065 
24.3947 10.147 16.048 
23.0355 11.5505 14.3917 
23.1584 8.55308 14.4992 
27.3227 9.96343 13.207 
26.885 9.8719 15.8948 
28.5695 8.43843 14.5922 
25.8119 8.42739 14.3694 
25.8245 11.4917 14.4954 
1.50277 12.9759 12.9739 
1.47981 15.8642 12.8142 
0.121507 14.3441 14.3412 
1.38426 12.9797 15.8845 
1.51651 15.766 15.6914 
3.01736 14.3574 14.3964 
4.46309 12.96 12.9926 
7.13596 12.9371 12.7956 
4.29197 15.9283 12.7773 
7.29338 15.7705 13.0747 
4.42514 12.9256 15.8815 
7.27607 12.9227 15.7912 
4.36075 15.7165 15.8729 
7.21059 15.847 15.7042 
5.62645 14.4326 14.449 
10.0858 12.8371 13.0999 
10.1407 15.7802 12.9192 
10.0645 12.7905 15.8129 
10.2426 15.6402 15.9138 
11.5558 14.4163 14.3969 
8.72891 14.3836 14.3937 
12.9479 12.9857 12.8498 
15.8729 12.9634 12.9461 
12.9434 15.7555 12.9426 
15.7343 15.8258 12.9423 
14.367 14.3386 14.2547 
13.1292 12.9193 15.9218 
15.8852 12.9835 16.0051 
13.0236 15.817 15.7122 
15.7718 15.5929 15.7052 
18.725 13.0553 12.9259 
18.6906 15.8403 12.82 
19.9359 14.4708 14.333 
17.1305 14.3323 14.2999 
18.788 13.1082 15.712 
18.6115 15.7791 15.6647 
21.4723 13.1126 13.1952 
21.4081 15.8958 12.8198 
24.4675 15.7616 12.7877 
24.3645 12.9029 12.9727 
23.023 14.5951 14.2477 
21.428 13.102 15.7803 
24.4227 13.0193 15.867 
21.5778 15.9203 15.4952 
24.4472 15.7964 15.6116 
27.1887 12.7887 12.8268 
27.2926 15.7377 12.9617 
27.3479 12.9855 15.9508 
27.2044 15.7941 15.7519 
25.8406 14.347 14.5161 
1.4124 18.5763 12.8879 
2.82201 20.0773 14.3167 
2.81958 17.1856 14.1506 
1.55924 18.6027 15.6664 
4.53036 18.6704 12.9978 
7.37309 18.6092 13.0246 
5.80206 17.1603 14.3424 
4.34052 18.6116 15.7478 
7.14086 18.4854 15.9089 
5.99267 20.1048 14.5448 
10.1675 18.7033 12.8125 
8.7065 17.2864 14.3535 
10.146 18.6288 15.9315 
11.3221 17.2685 14.4226 
8.65559 20.0646 14.4832 
11.4279 20.1809 14.5407 
12.8523 18.7905 12.9607 
15.7639 18.6352 12.8741 
14.1383 17.3268 14.199 
14.4516 20.057 14.2092 
12.9958 18.6123 15.8465 
15.5796 18.1273 15.8171 
18.8248 18.3287 12.7678 
17.9723 20.2238 13.5148 
17.2226 17.2665 14.1832 
20.2008 17.3671 14.3115 
16.6083 20.0039 15.115 
18.5691 18.5068 15.6942 
20.0995 20.0513 14.578 
21.4876 18.7699 12.8723 
24.4314 18.6768 12.9064 
22.8771 17.2455 14.1528 
21.3633 18.6465 15.9094 
24.4907 18.7568 15.6215 
22.9649 20.0631 14.4436 
27.2937 18.7724 12.762 
25.8003 17.2918 14.2646 
25.8508 20.0422 14.166 
28.6701 19.8928 14.2585 
27.382 18.732 15.7927 
28.6676 17.116 14.3827 
2.75376 22.8157 14.3035 
1.23041 21.5337 12.999 
1.507 24.4433 12.9769 
1.51355 21.4253 15.8059 
1.34026 24.2164 15.9 
0.00366947 22.8506 14.523 
4.45755 21.3044 12.9326 
7.22834 21.5639 12.9091 
4.37164 24.3342 12.9412 
7.17921 24.3782 13.0347 
5.66676 22.7117 14.3498 
4.32617 21.5508 15.9858 
7.30776 21.5444 15.7703 
4.25979 24.2187 15.8298 
7.07818 24.4354 15.7452 
9.95486 21.6164 13.09 
10.0349 24.4932 12.794 
10.0271 21.5298 16.0068 
10.0052 24.2822 15.7305 
8.62207 23.0862 14.4172 
11.4875 22.9448 14.3592 
12.8204 21.4323 13.117 
15.7494 21.3825 12.7113 
12.9011 24.4719 12.8368 
15.7578 24.3116 12.8399 
14.2979 23.0009 14.2639 
13.0334 21.4786 15.8817 
15.6904 21.8661 16.0741 
15.7076 24.3476 15.8172 
12.9066 24.4856 15.7353 
18.8625 22.0248 12.7709 
18.8161 24.4996 13.1203 
18.4992 21.7263 15.9265 
18.6676 24.4973 15.821 
17.2295 22.7384 14.3693 
20.1261 22.9487 14.5632 
24.4112 24.3632 12.9517 
21.4006 24.4075 12.8567 
21.3302 21.2342 12.9784 
24.6081 21.2823 12.8821 
22.9902 22.8193 14.2766 
21.6551 21.577 15.8549 
24.4391 21.4545 15.8783 
21.4678 24.4742 15.7413 
24.2314 24.3693 15.7649 
27.2758 24.361 13.0002 
27.2524 21.5359 12.9266 
27.1478 21.3481 15.7976 
27.1874 24.363 15.7793 
25.9558 22.8707 14.4369 
1.49648 27.4477 12.8902 
1.4152 27.1817 15.6162 
2.8337 25.6973 14.4757 
2.89925 28.6539 14.5368 
0.0748775 25.7689 14.3669 
7.18899 27.1866 13.064 
4.1415 27.2077 13.0795 
5.69523 25.8304 14.3405 
4.40419 27.0753 15.9532 
7.30121 27.1851 15.989 
5.87311 28.4744 14.4171 
10.0349 27.3143 12.978 
10.125 27.3191 15.9286 
11.5195 25.9098 14.3573 
8.74337 25.8792 14.5105 
8.61178 28.6109 14.494 
15.8512 27.1812 12.8512 
12.7169 27.3503 12.8638 
14.3606 25.9413 14.2509 
12.8958 27.4145 15.735 
15.8698 27.3514 15.8521 
20.2261 26.0175 14.2652 
18.6583 27.2039 12.9041 
17.1496 25.7921 14.2968 
18.7763 27.1998 15.7216 
21.6492 27.2681 12.9443 
24.504 27.1796 12.9199 
23.0698 28.6008 14.2991 
21.5759 27.3609 15.8708 
24.3159 27.0895 15.8394 
22.8959 25.7199 14.4021 
27.2985 27.1789 12.9684 
25.8672 28.6118 14.2158 
27.2059 27.2868 15.8537 
25.8738 25.8275 14.3678 
1.31085 1.26716 18.5449 
2.8974 2.82212 17.129 
2.95992 2.68683 19.9966 
0.184265 2.71324 20.1096 
4.41883 1.13892 18.8272 
7.11772 1.46272 18.64 
5.69439 2.89799 17.2414 
5.90638 2.78647 20.2468 
9.98346 1.51882 18.7236 
8.52529 2.85167 17.2319 
11.581 2.8947 17.3838 
8.50228 2.9687 20.0778 
11.4916 2.91403 20.2221 
12.8915 1.49101 18.7228 
15.8541 1.56604 18.6644 
14.3086 2.85304 17.3455 
14.3699 0.0631539 17.201 
14.5008 3.02297 20.0587 
14.4535 0.0756921 20.0629 
18.6052 1.56591 18.714 
17.2295 2.90982 17.2727 
20.0565 2.93044 17.2528 
17.2467 0.0447876 17.3015 
17.2891 2.92945 20.1421 
20.2307 2.74212 20.1853 
17.144 0.138617 20.078 
20.0744 0.0171656 20.0613 
21.506 1.43775 18.6531 
22.9296 2.6519 17.3832 
24.4448 1.40435 18.6327 
22.8611 2.81891 20.1545 
28.6911 2.70595 17.2008 
27.0605 1.47573 18.7453 
25.7156 2.94896 17.3937 
25.7314 2.79985 20.2662 
1.5981 4.12145 18.7361 
1.44189 7.18515 18.6205 
2.83508 5.65254 17.1975 
2.86204 5.75351 19.9892 
4.50235 4.24625 18.8403 
7.28261 4.3932 18.6127 
4.24379 7.14981 18.5796 
5.73881 5.76386 17.3293 
7.11208 7.08784 18.502 
5.68536 5.78587 20.0403 
10.1686 4.25879 18.7524 
8.85873 5.64737 17.1949 
10.2574 7.18898 18.7071 