ITEM: TIMESTEP
16042
ITEM: NUMBER OF ATOMS
2001
ITEM: BOX BOUNDS pp pp pp
0.0000000000000000e+00 2.8712000000000000e+01
0.0000000000000000e+00 2.8712000000000000e+01
0.0000000000000000e+00 2.8712000000000000e+01
ITEM: ATOMS x y z c_cna 
1.43587 1.43302 1.43502 3 
2.87114 2.8688 2.87053 3 
0.00147926 2.86944 2.86947 3 
2.87034 2.86855 0.000424596 3 
4.30576 1.43287 1.43595 3 
7.17598 1.43323 1.43638 3 
5.74101 2.86876 2.87122 3 
5.74029 2.86881 0.00122949 3 
10.0469 1.43378 1.43625 3 
8.61137 2.86918 2.87129 3 
11.4825 2.86969 2.8709 3 
11.4825 2.86953 0.00139087 3 
8.61098 2.86922 0.00155183 3 
12.9184 1.43423 1.43584 3 
15.7904 1.43449 1.43533 3 
14.3542 2.87013 2.87036 3 
14.3545 2.86969 0.000996042 3 
18.6626 1.43459 1.43481 3 
17.2264 2.87039 2.8698 3 
20.0987 2.8705 2.86928 3 
20.0987 2.8697 3.36606e-05 3 
17.2266 2.86976 0.000509442 3 
21.5347 1.43454 1.43433 3 
24.4066 1.43429 1.43401 3 
22.971 2.87048 2.86887 3 
27.2777 1.43372 1.43417 3 
25.8428 2.87015 2.86884 3 
1.4359 4.30442 1.43493 3 
1.43599 7.17554 1.43486 3 
2.87114 5.73999 2.87045 3 
0.0013261 5.74004 2.86962 3 
2.87035 5.73994 0.000374582 3 
4.30566 4.30431 1.43583 3 
7.17584 4.30444 1.43629 3 
4.30573 7.17558 1.43575 3 
7.17587 7.17542 1.43623 3 
5.74096 5.73996 2.87112 3 
5.74028 5.7399 0.00115585 3 
10.0468 4.30467 1.43624 3 
10.0468 7.17519 1.43619 3 
8.61139 5.73996 2.87129 3 
11.4825 5.73994 2.87105 3 
8.61098 5.73988 0.00147327 3 
11.4825 5.73991 0.00130897 3 
12.9184 4.30487 1.43589 3 
15.7904 4.30502 1.43545 3 
12.9183 7.17506 1.43587 3 
15.7903 7.17504 1.43539 3 
14.3543 5.74001 2.87065 3 
14.3544 5.73996 0.000934026 3 
18.6626 4.30512 1.43494 3 
18.6625 7.17506 1.43486 3 
17.2264 5.7401 2.87014 3 
20.0987 5.74012 2.86963 3 
17.2266 5.74003 0.000478511 3 
21.5347 4.30512 1.43446 3 
21.5347 7.17509 1.43441 3 
22.9708 5.7401 2.86925 3 
24.4066 7.17517 1.4341 3 
24.4066 4.30498 1.43416 3 
27.2777 4.30473 1.43428 3 
27.2777 7.17532 1.43422 3 
25.8425 5.74009 2.86918 3 
1.43607 10.047 1.4349 3 
2.87128 8.61117 2.87043 3 
2.87136 11.4827 2.87066 3 
0.00160089 8.61058 2.86937 3 
0.00156556 11.482 2.86948 3 
2.87057 11.4829 0.000371418 3 
2.87047 8.61136 0.000348583 3 
4.30592 10.0471 1.43582 3 
7.17608 10.0467 1.43626 3 
5.74107 8.61116 2.87113 3 
5.74138 11.4827 2.87134 3 
5.74038 8.61104 0.00117696 3 
5.74071 11.4826 0.00114577 3 
10.0469 10.0462 1.43611 3 
8.6114 8.61074 2.87115 3 
11.4824 8.61026 2.87082 3 
8.61171 11.4821 2.8713 3 
11.4825 11.4814 2.87075 3 
11.4825 8.61035 0.00125617 3 
11.4826 11.4815 0.00126238 3 
8.6113 11.482 0.00145471 3 
8.61104 8.61063 0.00145186 3 
12.9183 10.0458 1.43572 3 
15.7902 10.0456 1.43522 3 
14.3541 8.60996 2.8703 3 
14.354 11.4808 2.87013 3 
14.3544 8.61027 0.000875242 3 
14.3544 11.4814 0.000868444 3 
18.6624 10.0455 1.43471 3 
17.2263 8.60977 2.86971 3 
20.0987 8.60968 2.8692 3 
17.2261 11.4804 2.86954 3 
20.0987 11.4802 2.86891 3 
17.2265 8.61032 0.00040422 3 
17.2264 11.4814 0.000425641 3 
21.5347 10.0456 1.43421 3 
24.4067 10.0458 1.43389 3 
22.971 8.60969 2.86876 3 
22.9713 11.4802 2.86836 3 
27.2779 10.0463 1.43408 3 
25.8429 8.60994 2.86876 3 
25.8433 11.4808 2.86839 3 
1.43598 12.9185 1.43509 3 
1.43586 15.7897 1.4353 3 
2.87139 14.3541 2.87097 3 
0.00124131 14.3537 2.86987 3 
2.87066 14.3543 0.000412458 3 
4.30616 12.9186 1.43598 3 
7.17656 12.9183 1.4364 3 
4.30638 15.7898 1.43618 3 
7.17707 15.7896 1.43657 3 
5.74178 14.3541 2.87169 3 
5.74113 14.3541 0.00114965 3 
10.0473 12.9178 1.43628 3 
10.0481 15.7894 1.4365 3 
8.61235 14.3538 2.8717 3 
11.4832 14.3533 2.8713 3 
8.61191 14.3537 0.00140289 3 
11.4831 14.3533 0.00127137 3 
12.9186 12.9173 1.43589 3 
15.7903 12.917 1.43546 3 
12.9193 15.7891 1.43632 3 
15.7907 15.7888 1.43604 3 
14.3545 14.3527 2.87086 3 
14.3546 14.353 0.000863608 3 
18.6623 12.9169 1.43498 3 
18.6623 15.7885 1.43562 3 
17.2263 14.3522 2.87038 3 
20.0987 14.3518 2.86967 3 
20.098 14.3531 3.64851e-05 3 
17.2263 14.353 0.000464767 3 
21.5345 12.9169 1.43443 3 
24.4065 12.9172 1.43404 3 
21.534 15.7886 1.43499 3 
22.9713 14.3519 2.86888 3 
24.4057 15.7891 1.43454 3 
27.2776 12.918 1.4343 3 
27.2771 15.7895 1.43457 3 
25.8426 14.353 2.86899 3 
1.43578 18.6606 1.43545 3 
2.87141 17.2252 2.87125 3 
2.87137 20.096 2.8714 3 
2.87066 20.0961 0.000534911 3 
2.87072 17.2253 0.00048524 3 
0.000990685 17.225 2.87014 3 
0.000862527 20.096 2.8703 3 
4.30644 18.6607 1.4363 3 
7.17732 18.6607 1.4367 3 
5.74206 17.2253 2.87196 3 
5.74211 20.0961 2.8721 3 
5.74141 17.2252 0.00119416 3 
5.74141 20.0961 0.0012544 3 
10.0485 18.6606 1.43664 3 
8.6129 17.2252 2.87203 3 
11.484 17.225 2.87186 3 
8.61308 20.0961 2.87218 3 
11.4844 20.0961 2.8721 3 
11.4838 17.2249 0.00120696 3 
8.61258 20.0962 0.00144429 3 
8.61242 17.2251 0.00141053 3 
11.4841 20.0962 0.00122727 3 
12.9199 18.6606 1.43658 3 
15.7912 18.6604 1.43654 3 
14.3555 17.2248 2.87191 3 
14.3561 20.0961 2.87234 3 
14.3554 20.0961 0.000938614 3 
14.3551 17.2247 0.000902969 3 
18.6622 18.6601 1.43611 3 
17.2269 17.2241 2.87168 3 
20.0986 17.2238 2.87089 3 
17.2275 20.096 2.87241 3 
20.0981 20.0959 2.87143 3 
17.2263 17.2245 0.000544793 3 
17.2263 20.096 0.000583617 3 
20.0975 17.2246 0.000139056 3 
20.0973 20.0959 0.000189214 3 
21.5334 18.6602 1.43544 3 
24.4052 18.6604 1.43481 3 
22.9702 17.2243 2.86991 3 
22.9697 20.0959 2.87022 3 
27.2768 18.6605 1.43475 3 
25.842 17.2247 2.86946 3 
25.8417 20.0959 2.86965 3 
1.43574 21.5314 1.43548 3 
1.43572 24.4023 1.43541 3 
2.87129 22.9669 2.87136 3 
0.000909727 22.967 2.87026 3 
2.87057 22.9668 0.000557708 3 
4.30636 21.5315 1.43637 3 
7.17722 21.5315 1.43677 3 
5.74194 22.9669 2.87207 3 
4.30619 24.4023 1.43631 3 
5.74123 22.967 0.00129052 3 
7.1769 24.4025 1.43672 3 
10.0485 21.5316 1.43671 3 
8.61284 22.967 2.87213 3 
11.484 22.9672 2.87193 3 
10.048 24.4027 1.43661 3 
8.61234 22.9671 0.00150031 3 
11.4838 22.9673 0.00131572 3 
12.92 21.5317 1.43665 3 
15.7913 21.5317 1.43657 3 
14.3556 22.9674 2.87195 3 
12.9194 24.403 1.43641 3 
15.7908 24.4033 1.43612 3 
14.3552 22.9675 0.000972916 3 
18.6622 21.5318 1.43616 3 
18.6624 24.4034 1.43571 3 
17.227 22.9679 2.87173 3 
20.0986 22.9681 2.87094 3 
20.0976 22.9673 0.000203034 3 
17.2264 22.9675 0.000592071 3 
21.5334 21.5316 1.43547 3 
24.4052 21.5314 1.43485 3 
21.5341 24.4033 1.43508 3 
22.9702 22.9675 2.86997 3 
24.4057 24.4028 1.43462 3 
27.2768 21.5314 1.43481 3 
27.277 24.4025 1.4347 3 
25.842 22.9671 2.86955 3 
0.00139651 28.71 2.86959 3 
2.87118 28.7093 2.87081 3 
2.8704 28.7091 0.000457477 3 
1.43578 27.2735 1.43523 3 
2.87121 25.8379 2.87116 3 
0.00109396 25.8383 2.86998 3 
2.87046 25.8378 0.000532687 3 
5.74124 28.7093 2.87149 3 
4.30596 27.2735 1.43613 3 
7.17642 27.2738 1.43654 3 
5.7416 25.8379 2.87185 3 
5.74054 28.7094 0.00126636 3 
5.7409 25.838 0.00129365 3 
11.4825 28.7107 2.87085 3 
8.61163 28.7099 2.87142 3 
11.4826 28.7104 0.00141365 3 
10.0473 27.2743 1.43641 3 
8.61227 25.8383 2.87181 3 
11.4832 25.8388 2.87136 3 
8.6112 28.71 0.00161023 3 
8.61181 25.8384 0.00154359 3 
11.4831 25.8389 0.00140837 3 
14.3542 28.7113 2.87023 3 
14.3545 28.7107 0.00101919 3 
12.9187 27.2748 1.43603 3 
15.7905 27.2751 1.43557 3 
14.3546 25.8394 2.87092 3 
14.3548 25.8391 0.00100792 3 
17.2263 28.7117 2.8696 3 
17.2266 28.7106 0.000559064 3 
20.0986 28.7105 7.42853e-05 3 
20.0988 28.7119 2.86896 3 
18.6625 27.2751 1.43507 3 
17.2265 25.8399 2.87044 3 
20.0989 25.8402 2.86974 3 
20.0982 25.8388 0.000156459 3 
17.2265 25.839 0.000593843 3 
22.9713 28.7119 2.86845 3 
21.5346 27.2751 1.43453 3 
22.9713 25.84 2.86898 3 
24.4064 27.2747 1.43416 3 
25.8432 28.7112 2.86849 3 
27.2774 27.274 1.43441 3 
25.8426 25.8389 2.86909 3 
1.43669 1.43376 4.30534 3 
1.43686 1.43431 7.17661 3 
2.87145 2.86922 5.74128 3 
0.00209379 2.87016 5.74033 3 
4.30621 1.43321 4.30629 3 
7.1763 1.43347 4.30658 3 
4.30609 1.43371 7.17717 3 
7.1759 1.43432 7.17701 3 
5.74107 2.86917 5.74167 3 
10.0467 1.43435 4.30609 3 
10.0468 1.43512 7.17692 3 
8.61152 2.8696 5.74174 3 
11.4824 2.87032 5.74128 3 
11.4817 0.000193704 5.74052 3 
12.918 1.43526 4.30531 3 
15.79 1.43591 4.30456 3 
12.9178 1.43633 7.17603 3 
15.7899 1.437 7.17518 3 
14.3541 2.87086 5.74071 3 
14.3531 0.00162948 5.73921 3 
18.6625 1.43632 4.30385 3 
18.6628 1.43754 7.17433 3 
17.2264 2.87121 5.7401 3 
20.099 2.87151 5.7395 3 
17.2258 0.00253939 5.73811 3 
20.0995 0.00329627 5.73706 3 
21.5354 1.43655 4.30322 3 
24.408 1.43638 4.30297 3 
21.5363 1.43818 7.17351 3 
24.4096 1.43824 7.17346 3 
22.9717 2.87166 5.73907 3 
22.9736 0.00368101 5.73628 3 
27.2793 1.43535 4.30372 3 
27.28 1.43639 7.17512 3 
25.8438 2.87134 5.73926 3 
25.846 0.00246588 5.73707 3 
1.43657 4.30473 4.30535 3 
1.43664 7.17532 4.3053 3 
1.43668 4.30498 7.1767 3 
1.43674 7.17514 7.17667 3 
2.87142 5.74003 5.74121 3 
0.00175647 5.74009 5.74059 3 
7.17621 4.30458 4.30646 3 
4.30615 4.30447 4.30609 3 
4.3062 7.17549 4.30604 3 
7.17623 7.17538 4.30642 3 
4.30612 4.30473 7.17707 3 
4.30616 7.17532 7.17705 3 
7.17615 4.3049 7.17717 3 
5.74113 5.73999 5.74164 3 
7.17614 7.17515 7.17719 3 
10.0469 4.30486 4.30632 3 
10.0469 7.1751 4.3063 3 
10.0471 4.30514 7.17727 3 
8.6116 5.74001 5.74179 3 
10.0471 7.1749 7.17725 3 
11.4827 5.74001 5.74163 3 
15.7903 4.30541 4.30546 3 
12.9184 4.30518 4.30594 3 
12.9183 7.17487 4.30591 3 
15.7903 7.17475 4.30541 3 
12.9186 4.30539 7.17704 3 
15.7906 4.30558 7.17665 3 
12.9185 7.17466 7.17703 3 
14.3544 5.74006 5.74129 3 
15.7905 7.17459 7.17667 3 
18.6626 4.30558 4.30492 3 
18.6625 7.17466 4.30491 3 
18.6628 4.30572 7.17619 3 
17.2265 5.74011 5.74085 3 
18.6627 7.17453 7.1762 3 
20.0988 5.74014 5.74039 3 
24.4071 7.17462 4.30419 3 
21.535 4.30563 4.30447 3 
24.4071 4.30556 4.30424 3 
21.5349 7.17459 4.30442 3 
21.5352 4.30587 7.17574 3 
21.5352 7.17438 7.17573 3 
22.9712 5.7401 5.74001 3 
24.4075 7.17429 7.17557 3 
24.4075 4.30591 7.1756 3 
27.2785 4.30527 4.30452 3 
27.2785 7.17486 4.30449 3 
27.2787 4.30557 7.17606 3 
25.843 5.7401 5.74004 3 
27.2788 7.17462 7.17604 3 
1.43686 10.0463 4.30523 3 
1.43702 10.0457 7.17654 3 
2.87156 8.6108 5.74122 3 
2.87166 11.4822 5.74141 3 
0.00260403 11.4807 5.73986 3 
0.00219158 8.60991 5.74027 3 
4.30635 10.0468 4.30616 3 
7.17637 10.0465 4.30647 3 
4.30621 10.0463 7.17712 3 
5.74112 8.61082 5.74161 3 
7.17592 10.0457 7.17696 3 
5.74131 11.4822 5.74185 3 
10.0467 10.0456 4.30601 3 
8.6115 8.61039 5.74169 3 
10.0468 10.0449 7.17691 3 
11.4824 8.60973 5.74129 3 
8.61161 11.4815 5.74176 3 
11.4817 11.4799 5.74051 3 
12.9178 10.0448 4.30525 3 
15.7898 10.0442 4.3045 3 
12.9177 10.0438 7.17607 3 
14.354 8.60925 5.74071 3 
15.7897 10.0431 7.17523 3 
14.353 11.4785 5.73919 3 
18.6624 10.0438 4.30381 3 
17.2262 8.60895 5.74008 3 
18.6626 10.0426 7.17435 3 
20.0989 8.60871 5.73949 3 
17.2256 11.4775 5.73811 3 
20.0994 11.4768 5.73705 3 
21.5353 10.0436 4.30318 3 
21.5363 10.042 7.17353 3 
22.9717 8.60852 5.73904 3 
22.9736 11.4764 5.73626 3 
24.4096 10.0419 7.17346 3 
24.4081 10.0437 4.30291 3 
27.2794 10.0447 4.30365 3 
25.8439 8.60882 5.73921 3 
27.2801 10.0437 7.17506 3 
25.846 11.4776 5.73699 3 
1.43672 12.9179 4.30559 3 
1.43652 15.7895 4.30605 3 
1.4369 12.9172 7.17667 3 
1.43645 15.7891 7.17737 3 
2.87158 14.3538 5.74194 3 
0.00202704 14.353 5.74046 3 
4.30653 12.9184 4.30658 3 
4.30674 15.7897 4.307 3 
7.17685 12.9181 4.30687 3 
7.17744 15.7896 4.30742 3 
4.30636 12.9179 7.17752 3 
7.17628 12.9173 7.1773 3 
4.3066 15.7895 7.17817 3 
5.74177 14.3539 5.74244 3 
7.17713 15.7893 7.17818 3 
10.0471 12.9173 4.30632 3 
10.048 15.7893 4.3071 3 
10.0469 12.9162 7.17701 3 
8.61242 14.3534 5.74248 3 
10.0483 15.7888 7.17835 3 
11.4823 14.3521 5.74119 3 
12.9178 12.9162 4.30529 3 
15.7897 12.9152 4.30445 3 
12.9189 15.7887 4.30651 3 
15.7906 15.7878 4.30613 3 
12.9158 12.913 7.17421 3 
15.7877 12.9107 7.17193 3 
12.917 15.7866 7.17565 3 
14.353 14.3504 5.73955 3 
15.7883 15.7837 7.17317 3 
18.6631 15.7868 4.30541 3 
18.6625 12.9145 4.30361 3 
18.6625 12.909 7.1701 3 
17.2259 14.3488 5.73835 3 
18.6645 15.7807 7.17117 3 
20.1006 14.3475 5.73681 3 
21.5361 12.9141 4.30263 3 
21.5362 15.7865 4.30403 3 
24.4077 15.7881 4.30367 3 
24.4091 12.9145 4.30222 3 
21.5394 12.9074 7.16816 3 
24.4147 12.9082 7.16827 3 
21.5437 15.7791 7.16761 3 
22.9757 14.3475 5.73533 3 
24.4115 15.7863 7.17136 3 
27.2792 12.9167 4.30383 3 
27.2786 15.7889 4.30447 3 
27.2807 12.9146 7.17398 3 
25.8452 14.3512 5.73779 3 
27.2793 15.7881 7.17523 3 
1.43639 18.6605 4.30636 3 
1.43622 18.6604 7.17789 3 
2.87156 17.2251 5.74244 3 
2.87152 20.096 5.74266 3 
0.00138389 20.0959 5.74136 3 
0.00153956 17.2247 5.74108 3 
4.30684 18.6606 4.30728 3 
7.17777 18.6607 4.30776 3 
4.30672 18.6606 7.17863 3 
5.74213 17.2252 5.74297 3 
7.17763 18.6606 7.17877 3 
5.74222 20.096 5.74319 3 
10.0486 18.6606 4.30758 3 
8.61325 17.2251 5.74327 3 
10.0494 18.6606 7.17947 3 
11.4837 17.2248 5.74259 3 
8.61355 20.096 5.74358 3 
11.4843 20.096 5.74312 3 
12.92 18.6605 4.30749 3 
15.7922 18.6603 4.30802 3 
12.9193 18.6603 7.17805 3 
14.3551 17.2241 5.74203 3 
15.7926 18.6595 7.17814 3 
14.3563 20.096 5.74326 3 
18.6635 18.6593 4.30742 3 
17.2276 17.2224 5.74173 3 
18.6672 18.6556 7.17757 3 
20.1014 17.2209 5.73995 3 
17.2297 20.096 5.7443 3 
20.0992 20.0959 5.7423 3 
21.5346 18.6598 4.30575 3 
24.4069 18.6602 4.30436 3 
21.5367 18.6602 7.17493 3 
22.9727 17.2237 5.73868 3 
24.4099 18.6599 7.17288 3 
22.9718 20.0959 5.73937 3 
27.2782 18.6603 4.30485 3 
25.8441 17.2242 5.73886 3 
27.2785 18.6602 7.17606 3 
25.8437 20.0959 5.73921 3 
1.43633 21.5314 4.3064 3 
1.43637 24.4026 4.30619 3 
1.43619 21.5315 7.17791 3 
2.87146 22.9669 5.74253 3 
1.43637 24.4028 7.17744 3 
0.00150008 22.9672 5.74115 3 
4.30676 21.5314 4.30736 3 
7.17772 21.5315 4.30779 3 
7.17734 24.4025 4.30754 3 
4.30658 24.4024 4.30716 3 
4.30667 21.5314 7.17866 3 
7.17762 21.5315 7.17877 3 
4.30651 24.4025 7.17826 3 
5.74203 22.9669 5.74303 3 
7.17709 24.4027 7.17821 3 
10.0487 21.5315 4.30763 3 
10.0495 21.5315 7.17945 3 
8.61325 22.967 5.74331 3 
10.0483 24.4033 7.17833 3 
11.4838 22.9674 5.74259 3 
10.0481 24.4028 4.30714 3 
12.9191 24.4034 4.30655 3 
12.9201 21.5316 4.3075 3 
15.7922 21.5318 4.30801 3 
15.7907 24.4043 4.30615 3 
12.9194 21.5318 7.17804 3 
15.7926 21.5324 7.17809 3 
14.3551 22.9679 5.74202 3 
15.7885 24.4083 7.17309 3 
12.9171 24.4055 7.17559 3 
18.6636 21.5326 4.30745 3 
18.6632 24.4052 4.30543 3 
18.6673 21.5364 7.17754 3 
17.2277 22.9696 5.74171 3 
18.6647 24.4113 7.17116 3 
20.1015 22.9709 5.73994 3 
24.4069 21.5316 4.30439 3 
24.4077 24.4038 4.30375 3 
21.5346 21.5319 4.30576 3 
21.5363 24.4054 4.30408 3 
21.5368 21.5316 7.17492 3 
21.5438 24.4128 7.16759 3 
22.9727 22.9681 5.7387 3 
24.41 21.5318 7.17288 3 
24.4116 24.4056 7.17137 3 
27.2782 21.5315 4.3049 3 
27.2785 24.403 4.30457 3 
27.2785 21.5316 7.1761 3 
25.8441 22.9676 5.73893 3 
27.2792 24.4038 7.1753 3 
0.00245241 28.7113 5.73994 3 
1.43654 27.2741 4.30575 3 
2.8715 28.7099 5.74153 3 
1.43677 27.2748 7.17677 3 
2.87147 25.8382 5.74208 3 
0.00190465 25.839 5.74057 3 
5.74123 28.7098 5.74195 3 
4.3064 27.2737 4.30672 3 
7.17675 27.2739 4.30699 3 
4.30628 27.2741 7.17762 3 
5.74167 25.8382 5.74255 3 
7.17626 27.2747 7.17737 3 
8.61159 28.7105 5.74181 3 
10.0471 27.2748 4.30638 3 
8.61239 25.8386 5.74253 3 
10.0469 27.2759 7.17699 3 
11.4824 25.84 5.74118 3 
12.918 27.276 4.30534 3 
15.7899 27.2769 4.30448 3 
12.9159 27.2791 7.17415 3 
14.3531 25.8418 5.73952 3 
15.7879 27.2814 7.17188 3 
18.6627 27.2775 4.30364 3 
17.226 25.8432 5.73833 3 
18.6627 27.283 7.17007 3 
20.1008 25.8445 5.73683 3 
21.5361 27.2779 4.30268 3 
24.4091 27.2774 4.30232 3 
21.5395 27.2846 7.16813 3 
22.9758 25.8445 5.73538 3 
24.4147 27.2838 7.16829 3 
27.2791 27.2753 4.30397 3 
25.8451 25.8407 5.73789 3 
27.2806 27.2775 7.17406 3 
2.87127 2.86951 8.61275 3 
1.43656 1.43448 10.0485 3 
2.87085 2.86963 11.4846 3 
0.0015779 2.87041 11.4846 3 
0.00203301 2.87045 8.61227 3 
5.74073 2.86966 8.61274 3 
4.30569 1.43408 10.0486 3 
7.17522 1.4351 10.0481 3 
5.74027 2.86998 11.4843 3 
8.61117 2.87028 8.61258 3 
11.4827 2.8707 8.61268 3 
8.61046 8.81234e-05 8.61188 3 
11.4806 0.00285111 11.4827 3 
10.0461 1.43622 10.0477 3 
8.61073 2.8707 11.4841 3 
11.4825 2.87093 11.4843 3 
11.4821 0.00112574 8.61203 3 
8.60928 0.00139776 11.4831 3 
14.3545 2.87103 8.61235 3 
14.3542 0.00234132 11.4839 3 
12.9183 1.4365 10.0481 3 
15.7904 1.43668 10.0476 3 
14.3548 2.8707 11.4846 3 
14.3529 0.00297119 8.61041 3 
17.2267 2.87118 8.61184 3 
20.0994 2.87147 8.61124 3 
20.1007 0.00496394 8.60769 3 
18.6634 1.43682 10.0468 3 
17.227 2.87046 11.4842 3 
20.0994 2.87071 11.4837 3 
17.226 0.00377369 8.60914 3 
20.1016 0.00314989 11.4814 3 
17.2269 0.00204541 11.4826 3 
22.9722 2.8719 8.6109 3 
21.537 1.43776 10.0461 3 
24.4094 1.4381 10.0468 3 
22.9718 2.8714 11.4838 3 
22.9761 0.00614895 8.6069 3 
22.9752 0.004841 11.4823 3 
25.8439 2.87162 8.61145 3 
25.8467 0.00363018 8.60951 3 
25.8458 0.00311506 11.4836 3 
27.2797 1.43645 10.0478 3 
25.8434 2.8714 11.4842 3 
2.87128 5.74006 8.61273 3 
1.43639 4.30508 10.0486 3 
1.43641 7.17511 10.0486 3 
2.87085 5.74007 11.4846 3 
0.00118848 5.74013 11.4846 3 
0.00162669 5.7401 8.61245 3 
5.74093 5.74002 8.61284 3 
4.30582 7.17519 10.0486 3 
4.30579 4.30488 10.0486 3 
7.17585 4.30512 10.0485 3 
7.17586 7.17489 10.0486 3 
5.74056 5.73999 11.4845 3 
8.61153 5.74002 8.61291 3 
11.483 5.74003 8.61303 3 
10.047 4.30536 10.0486 3 
10.047 7.17464 10.0487 3 
8.61129 5.73997 11.4845 3 
11.483 5.73998 11.4848 3 
14.3548 5.74004 8.61287 3 
15.7909 4.3054 10.0486 3 
12.9189 4.3054 10.0488 3 
12.9189 7.17462 10.0489 3 
15.7908 7.17473 10.0486 3 
14.3549 5.74 11.4848 3 
17.2268 5.74013 8.61256 3 
20.099 5.74013 8.61215 3 
18.663 4.30543 10.0482 3 
18.6629 7.17479 10.0483 3 
17.2269 5.74007 11.4846 3 
20.0989 5.7401 11.4842 3 
22.9712 5.74012 8.61186 3 
21.5353 4.30564 10.0479 3 
21.5352 7.17459 10.0479 3 
22.9709 5.74013 11.4842 3 
24.4072 7.17442 10.048 3 
24.4073 4.30583 10.0479 3 
25.843 5.74012 8.61205 3 
27.2785 4.30559 10.0483 3 
27.2784 7.17464 10.0483 3 
25.8425 5.74013 11.4844 3 
2.87136 8.61056 8.61273 3 
2.8714 11.4818 8.61286 3 
1.43665 10.0456 10.0486 3 
2.87092 8.61049 11.4846 3 
2.87093 11.4816 11.4847 3 
0.00163155 8.60978 11.4846 3 
0.0025521 11.4802 8.61181 3 
0.002117 8.6097 8.61225 3 
0.00194369 11.4803 11.4844 3 
5.74078 8.6104 8.61276 3 
5.74077 11.4815 8.61277 3 
4.30577 10.046 10.0486 3 
7.17523 10.0449 10.0482 3 
5.74031 8.61006 11.4844 3 
5.74018 11.481 11.4843 3 
8.61117 8.60976 8.61264 3 
11.4826 8.60934 8.61274 3 
8.61043 11.4799 8.61189 3 
11.482 11.4789 8.61209 3 
10.046 10.0438 10.0478 3 
8.61074 8.60925 11.4842 3 
11.4824 8.60904 11.4844 3 
8.60924 11.4786 11.4832 3 
11.4805 11.4772 11.4828 3 
14.3543 8.60905 8.61239 3 
14.3527 11.4771 8.6105 3 
12.9182 10.0435 10.0483 3 
15.7902 10.0435 10.0477 3 
14.3547 8.60932 11.4847 3 
14.3541 11.4777 11.4841 3 
17.2266 8.60901 8.61188 3 
20.0993 8.60875 8.61127 3 
17.2258 11.4763 8.6092 3 
20.1006 11.4751 8.60771 3 
18.6632 10.0433 10.0469 3 
17.2268 8.60966 11.4843 3 
20.0993 8.60946 11.4838 3 
17.2267 11.478 11.4828 3 
20.1014 11.4769 11.4815 3 
22.9721 8.60831 8.6109 3 
22.976 11.474 8.60693 3 
21.5368 10.0424 10.0461 3 
22.9717 8.60883 11.4838 3 
22.9751 11.4753 11.4824 3 
24.4094 10.0421 10.0468 3 
25.8439 8.60858 8.61144 3 
25.8467 11.4765 8.60946 3 
27.2797 10.0437 10.0479 3 
25.8434 8.60883 11.4843 3 
25.8458 11.477 11.4837 3 
2.87132 14.3534 8.6133 3 
1.43645 12.917 10.0486 3 
1.43593 15.7887 10.0489 3 
2.87089 14.3532 11.4849 3 
0.0020197 14.352 8.61176 3 
0.00116853 14.352 11.4842 3 
5.74133 14.3534 8.61338 3 
4.30595 12.9175 10.0489 3 
7.17531 12.9163 10.0481 3 
4.30636 15.7892 10.0496 3 
7.17658 15.7888 10.0492 3 
5.74092 14.3529 11.4848 3 
8.61116 14.3522 8.61244 3 
11.4825 14.3506 8.61257 3 
10.0442 12.913 10.0459 3 
10.0457 15.7866 10.0471 3 
8.60962 14.3505 11.4832 3 
11.4759 14.3437 11.4782 3 
14.3481 14.3437 8.60584 3 
12.9176 12.9125 10.0476 3 
15.7878 12.9096 10.0444 3 
12.9197 15.7855 10.0497 3 
15.776 15.7683 10.0317 3 
14.3546 14.3457 11.4846 3 
17.2227 14.3396 8.60157 3 
20.1045 14.3354 8.59743 3 
18.664 12.9081 10.0421 3 
18.6637 15.7571 10.0225 3 
17.2241 14.3416 11.4763 3 
20.1113 14.3362 11.4715 3 
22.9882 14.3336 8.59466 3 
21.5433 12.9048 10.0396 3 
21.5743 15.7454 10.0085 3 
22.9853 14.3355 11.4783 3 
24.4147 12.9075 10.0435 3 
24.4152 15.7792 10.0391 3 
25.8475 14.3475 8.60723 3 
27.2802 12.9142 10.047 3 
27.2788 15.7866 10.0467 3 
25.846 14.3477 11.4823 3 
2.87125 17.2249 8.61395 3 
2.87121 20.096 8.61423 3 
0.00101908 17.2244 8.6128 3 
1.43554 18.6603 10.0495 3 
2.87088 17.2247 11.4854 3 
2.87086 20.096 11.4856 3 
0.000698626 20.0959 8.61325 3 
5.74192 17.225 8.61421 3 
5.74212 20.096 8.61456 3 
4.3066 18.6605 10.0502 3 
7.17759 18.6605 10.0502 3 
5.74201 17.2248 11.4858 3 
5.74242 20.096 11.4863 3 
8.61262 17.2248 8.61385 3 
11.4851 17.2244 8.61512 3 
8.61316 20.096 8.61438 3 
11.4864 20.096 8.61633 3 
10.0481 18.6603 10.0494 3 
8.61219 17.2242 11.4852 3 
11.479 17.2201 11.4807 3 
8.61342 20.0961 11.4864 3 
11.4827 20.096 11.4845 3 
14.3506 17.2201 8.60888 3 
14.3546 20.096 8.61256 3 
12.9245 18.6607 10.0544 3 
15.7811 18.6508 10.0378 3 
14.3627 17.2227 11.4926 3 
14.3723 20.096 11.5022 3 
17.2267 17.215 8.60551 3 
20.1135 17.2081 8.60006 3 
17.2359 20.096 8.61232 3 
20.0982 20.0959 8.61565 3 
18.6847 18.6293 10.0389 3 
17.1942 17.1793 11.4347 3 
20.1959 17.1209 11.3868 3 
17.231 20.096 11.3819 5 
20.0467 20.096 11.536 5 
22.9776 17.2242 8.60514 3 
22.9764 20.0959 8.6063 3 
21.5391 18.6706 10.0436 3 
22.9826 17.2081 11.4693 3 
22.967 20.0959 11.4845 3 
24.4078 18.6603 10.046 3 
25.8441 17.2238 8.61016 3 
25.8434 20.0959 8.61108 3 
28.712 17.2239 11.4843 3 
28.7114 20.0959 11.4848 3 
27.2771 18.6599 10.0482 3 
25.8428 17.221 11.4814 3 
25.8404 20.0959 11.4836 3 
2.8712 22.9671 8.61397 3 
1.43553 21.5316 10.0495 3 
1.43586 24.4033 10.0489 3 
2.87085 22.9673 11.4853 3 
0.000971459 22.9675 8.61281 3 
5.74189 22.967 8.61422 3 
7.17658 24.4032 10.0491 3 
4.30658 21.5315 10.0502 3 
7.17757 21.5315 10.0502 3 
4.3063 24.4028 10.0496 3 
5.74198 22.9672 11.4857 3 
8.61264 22.9673 8.61379 3 
11.4852 22.9677 8.61505 3 
10.0458 24.4054 10.047 3 
10.0482 21.5318 10.0493 3 
8.61221 22.9679 11.4851 3 
11.4791 22.9719 11.4805 3 
14.3507 22.9719 8.60878 3 
12.9245 21.5313 10.0544 3 
15.7812 21.5412 10.0377 3 
12.9198 24.4065 10.0495 3 
15.7761 24.4237 10.0315 3 
14.3628 22.9693 11.4925 3 
17.2268 22.9769 8.60541 3 
20.1136 22.9838 8.59999 3 
18.6848 21.5626 10.0387 3 
18.6638 24.4349 10.0223 3 
20.196 23.0711 11.3867 3 
17.1943 23.0127 11.4345 3 
22.9777 22.9677 8.60508 3 
22.9827 22.9838 11.4692 3 
21.5391 21.5213 10.0436 3 
24.4152 24.4127 10.0391 3 
21.5744 24.4465 10.0084 3 
24.4078 21.5316 10.046 3 
25.8441 22.9681 8.61018 3 
28.7119 22.968 11.4843 3 
27.2788 24.4053 10.0467 3 
25.8428 22.9708 11.4814 3 
27.2771 21.5319 10.0483 3 
0.00244279 28.7118 8.61187 3 
0.00187322 28.7117 11.4844 3 
2.87127 28.7103 8.61288 3 
2.87125 25.8386 8.61335 3 
0.00193866 25.8399 8.61183 3 
0.00113412 25.84 11.4842 3 
2.87083 25.8388 11.4849 3 
1.43637 27.275 10.0486 3 
2.87084 28.7104 11.4846 3 
5.74015 28.711 11.4842 3 
5.74072 28.7105 8.61278 3 
5.74128 25.8386 8.61341 3 
4.30588 27.2745 10.0489 3 
7.17531 27.2757 10.048 3 
5.7409 25.8391 11.4847 3 
8.6112 25.8398 8.61242 3 
11.4826 25.8414 8.61247 3 
10.0443 27.279 10.0459 3 
8.60967 25.8415 11.4831 3 
11.476 25.8483 11.478 3 
14.3482 25.8484 8.60574 3 
12.9177 27.2796 10.0475 3 
15.788 27.2825 10.0442 3 
14.3547 25.8464 11.4844 3 
17.2229 25.8525 8.60146 3 
20.1047 25.8566 8.59736 3 
20.1115 25.8558 11.4714 3 
18.6642 27.2839 10.042 3 
17.2242 25.8503 11.4761 3 
22.9883 25.8584 8.59461 3 
22.9854 25.8565 11.4782 3 
24.4148 27.2845 10.0435 3 
21.5434 27.2872 10.0395 3 
25.8475 25.8444 8.60726 3 
25.846 25.8443 11.4822 3 
27.2802 27.2778 10.047 3 
1.43603 1.43441 12.9206 3 
1.43548 1.43422 15.7927 3 
2.87034 2.86961 14.3565 3 
0.00100314 2.87021 14.3568 3 
4.30522 1.43429 12.9204 3 
7.17458 1.43564 12.9199 3 
4.30469 1.43438 15.7924 3 
7.1739 1.43607 15.7923 3 
5.73976 2.87016 14.3563 3 
10.0453 1.43683 12.9197 3 
11.482 2.87097 14.3565 3 
8.61021 2.87098 14.3562 3 
10.0445 1.43732 15.7925 3 
11.4794 0.00363545 14.3557 3 
8.60826 0.00231138 14.3556 3 
12.9178 1.43656 12.9202 3 
15.7907 1.43572 12.9204 3 
14.3544 2.87033 14.3567 3 
12.9171 1.43664 15.7931 3 
15.79 1.43543 15.7931 3 
14.353 0.00197987 14.3566 3 
18.6634 1.4355 12.9196 3 
17.2267 0.000700707 14.3563 3 
20.0989 2.87038 14.3561 3 
17.2267 2.87 14.3564 3 
18.6626 1.43563 15.7924 3 
20.1003 0.00191077 14.3561 3 
21.5362 1.43671 12.9197 3 
24.4085 1.43736 12.9203 3 
22.9711 2.87102 14.3564 3 
21.5353 1.43648 15.7927 3 
24.4076 1.43674 15.7932 3 
22.9737 0.00355138 14.3571 3 
27.279 1.4361 12.9207 3 
27.2782 1.43559 15.7931 3 
25.8427 2.87103 14.3568 3 
25.8447 0.00224262 14.3573 3 
1.4359 4.30504 12.9207 3 
1.43593 7.17512 12.9207 3 
2.87037 5.74001 14.3566 3 
0.000676489 5.7401 14.3567 3 
1.43537 4.30494 15.7927 3 
1.43544 7.17516 15.7927 3 
4.30533 4.30495 12.9205 3 
7.17544 4.30524 12.9203 3 
4.30536 7.17509 12.9205 3 
7.17545 7.17468 12.9204 3 
7.17497 4.30531 15.7924 3 
4.30483 4.30493 15.7925 3 
4.30489 7.17501 15.7925 3 
7.17495 7.1745 15.7925 3 
5.74011 5.73996 14.3564 3 
10.0468 4.30541 12.9204 3 
10.0467 7.17448 12.9205 3 
10.0463 4.30544 15.7926 3 
10.0463 7.17429 15.7927 3 
11.4827 5.73989 14.3567 3 
8.61092 5.7399 14.3564 3 
12.9188 4.30526 12.9207 3 
15.7908 4.30508 12.9207 3 
12.9187 7.17463 12.9208 3 
15.7908 7.17488 12.9207 3 
14.3547 5.7399 14.3568 3 
12.9184 4.30517 15.7928 3 
15.7905 4.30494 15.7927 3 
12.9183 7.17454 15.7929 3 
15.7904 7.17489 15.7927 3 
18.6628 4.30508 12.9203 3 
18.6628 7.17504 12.9204 3 
17.2266 5.73998 14.3565 3 
18.6624 4.30506 15.7923 3 
18.6624 7.17495 15.7924 3 
20.0985 5.74006 14.3563 3 
24.4067 4.30564 12.9204 3 
21.5348 4.30537 12.9201 3 
21.5348 7.17483 12.9202 3 
24.4067 7.17461 12.9204 3 
22.9704 5.7401 14.3564 3 
21.5344 4.30531 15.7923 3 
21.5344 7.1748 15.7923 3 
24.4062 7.17471 15.7926 3 
24.4062 4.30549 15.7926 3 
27.2779 4.3055 12.9207 3 
27.2779 7.17477 12.9207 3 
27.2774 4.30532 15.7928 3 
27.2774 7.1749 15.7928 3 
25.842 5.74013 14.3566 3 
1.43611 10.0457 12.9207 3 
2.87048 11.4816 14.3566 3 
0.00106824 8.60997 14.3568 3 
1.43563 10.0459 15.7927 3 
0.00129949 11.4807 14.3569 3 
2.87045 8.61047 14.3566 3 
4.3053 10.0458 12.9205 3 
7.17459 10.0443 12.92 3 
5.73964 11.4806 14.3563 3 
4.3048 10.0457 15.7925 3 
7.17392 10.0438 15.7924 3 
5.73981 8.60979 14.3564 3 
10.0453 10.0431 12.9198 3 
11.482 8.60888 14.3566 3 
8.60823 11.4776 14.3558 3 
10.0445 10.0425 15.7927 3 
11.4793 11.4763 14.356 3 
8.6102 8.60888 14.3563 3 
12.9177 10.0434 12.9203 3 
15.7905 10.0442 12.9206 3 
14.3543 8.60952 14.3569 3 
12.9169 10.0432 15.7933 3 
15.7898 10.0445 15.7933 3 
14.3528 11.478 14.3568 3 
18.6632 10.0446 12.9198 3 
17.2264 11.4793 14.3566 3 
18.6624 10.0443 15.7925 3 
17.2265 8.60998 14.3566 3 
20.0988 8.60973 14.3562 3 
20.1002 11.4781 14.3563 3 
21.5361 10.0435 12.9198 3 
24.4085 10.0428 12.9204 3 
22.9736 11.4766 14.3572 3 
22.9711 8.60917 14.3565 3 
21.5353 10.0436 15.7928 3 
24.4076 10.0434 15.7933 3 
27.279 10.0441 12.9207 3 
25.8427 8.60919 14.3569 3 
27.2783 10.0446 15.7932 3 
25.8447 11.4779 14.3574 3 
1.4359 12.9171 12.9207 3 
1.4353 15.7887 12.9206 3 
2.8705 14.3532 14.3566 3 
1.43547 12.9173 15.7926 3 
1.43494 15.789 15.7921 3 
0.000481407 14.3525 14.3565 3 
4.30553 12.9173 12.9206 3 
7.17456 12.9154 12.9199 3 
4.3061 15.7889 12.921 3 
7.17629 15.7879 12.9208 3 
5.74052 14.3524 14.3566 3 
4.30511 12.9171 15.7925 3 
7.17379 12.9147 15.7926 3 
4.30575 15.7888 15.7925 3 
7.17565 15.787 15.7933 3 
10.042 12.9108 12.9179 3 
10.0433 15.7838 12.9185 3 
11.4717 14.3396 14.3528 3 
8.60854 14.349 14.356 3 
10.0403 12.9091 15.7927 3 
10.0414 15.7808 15.7947 3 
12.9144 12.9096 12.9179 3 
15.7905 12.9121 12.9206 3 
12.9018 15.7683 12.906 3 
15.7961 15.7799 12.9261 3 
14.3463 14.3416 14.3542 3 
12.9122 12.9081 15.7942 3 
15.7876 12.9114 15.7954 3 
12.8925 15.7571 15.7939 3 
15.7804 15.7534 15.8025 3 
18.6652 12.9115 12.9177 3 
18.6723 15.7534 12.9105 3 
20.1065 14.3418 14.3588 3 
18.6623 12.9122 15.7925 3 
18.6567 15.78 15.7868 3 
17.2264 14.3484 14.3565 3 
21.5407 12.9083 12.9189 3 
21.5603 15.7571 12.9191 3 
24.4115 15.7808 12.9183 3 
24.4127 12.9093 12.9204 3 
22.9812 14.3398 14.3602 3 
21.5385 12.9098 15.7952 3 
24.4109 12.9111 15.7952 3 
21.5511 15.7685 15.8069 3 
24.4096 15.7839 15.7945 3 
27.2792 12.9148 12.9205 3 
27.2774 15.7869 12.9198 3 
27.2784 12.9156 15.7933 3 
27.2767 15.7881 15.7923 3 
25.8444 14.3491 14.357 3 
1.43485 18.6602 12.9206 3 
1.43448 18.6604 15.7915 3 
2.87052 20.096 14.3564 3 
2.87054 17.2247 14.3565 3 
4.30659 18.6604 12.9215 3 
7.17819 18.6603 12.9223 3 
5.74185 17.2243 14.3571 3 
4.30625 18.6603 15.7923 3 
7.1777 18.6595 15.7936 3 
5.74255 20.0961 14.3576 3 
10.0483 18.6596 12.9226 3 
8.61195 17.2225 14.3578 3 
11.4757 17.2151 14.3568 3 
11.4826 20.096 14.3658 3 
10.0479 18.6557 15.7973 3 
8.61459 20.0961 14.3597 3 
12.908 18.6508 12.9111 3 
15.8277 18.6736 12.9576 5 
14.3047 17.1792 14.3242 3 
12.9091 18.6294 15.8148 3 
15.6403 18.2583 15.9426 5 
14.2521 20.096 14.3609 5 
18.8124 18.2585 12.7704 5 
17.9755 20.0961 13.6073 5 
20.1481 17.1793 14.3886 3 
20.2008 20.0959 14.3517 5 
16.4775 20.0958 15.1054 5 
18.6252 18.6736 15.7552 5 
17.2264 17.2619 14.3565 5 
21.5438 18.6293 12.898 3 
24.4051 18.6556 12.9155 3 
22.9772 17.2152 14.3561 3 
22.9703 20.096 14.3469 3 
21.5449 18.6508 15.8018 3 
24.4046 18.6596 15.7903 3 
28.7105 20.0959 14.3553 3 
27.2753 18.6593 12.9192 3 
28.7112 17.2243 14.3559 3 
27.2748 18.6603 15.7906 3 
25.841 17.2225 14.3552 3 
25.8384 20.0959 14.3531 3 
1.43482 21.5318 12.9206 3 
1.43526 24.4033 12.9206 3 
1.43443 21.5316 15.7915 3 
1.43483 24.403 15.7921 3 
2.87047 22.9673 14.3565 3 
4.30655 21.5316 12.9214 3 
7.1782 21.5318 12.9223 3 
4.30607 24.4031 12.9209 3 
7.17629 24.4041 12.9207 3 
5.74181 22.9678 14.3571 3 
4.3062 21.5318 15.7923 3 
7.17769 21.5327 15.7936 3 