ITEM: TIMESTEP
16000
ITEM: NUMBER OF ATOMS
2001
ITEM: BOX BOUNDS pp pp pp
0.0000000000000000e+00 2.8712000000000000e+01
0.0000000000000000e+00 2.8712000000000000e+01
0.0000000000000000e+00 2.8712000000000000e+01
ITEM: ATOMS x y z 
1.59907 1.50558 1.41426 
2.90484 2.91281 2.81419 
0.102995 0.0669021 2.87982 
2.7721 0.0104782 2.99575 
0.144794 2.8642 0.107243 
2.89157 0.0534219 0.00369635 
0.0941149 2.76036 2.9297 
4.35081 1.43323 1.46827 
7.22782 1.4262 1.405 
5.68874 2.85249 2.90462 
5.6202 0.1298 2.8901 
10.1049 1.42451 1.33936 
8.66421 2.71482 3.0487 
11.4536 3.00301 2.9533 
11.4562 0.337605 2.97988 
12.9394 1.2673 1.34922 
15.8591 1.5019 1.47415 
14.4882 3.03762 2.65639 
14.4231 0.0562287 2.93442 
14.4587 0.0376558 0.0700791 
18.8911 1.63285 1.24382 
17.3136 3.03796 2.82904 
20.3193 2.78656 2.84809 
17.4116 0.0856258 2.8535 
17.2226 0.1156 0.131383 
20.1026 0.0535679 0.245638 
21.6733 1.53056 1.43368 
24.5504 1.21916 1.26856 
23.179 2.8247 2.88943 
23.1785 2.98059 0.0629794 
27.1474 1.26066 1.4273 
25.9876 2.65189 2.783 
25.896 0.00902961 2.8172 
28.6833 0.0358808 0.0137512 
1.59467 4.4063 1.3843 
1.52761 6.9592 1.41785 
2.90734 5.64851 3.04591 
4.42208 4.23282 1.38031 
7.10162 4.51075 1.30175 
4.16547 7.09629 1.46052 
7.08029 7.11395 1.37582 
5.70422 5.74907 2.75197 
9.94355 4.332 1.35665 
9.93254 7.23029 1.21577 
8.57472 5.80465 2.94295 
11.5291 5.7055 2.87464 
12.8303 4.33567 1.50369 
15.8577 4.38291 1.22798 
12.9233 7.17006 1.77589 
15.8769 7.0683 1.4955 
14.6581 5.72674 2.98213 
14.1872 5.69864 0.0188431 
18.8975 4.31203 1.47687 
18.6611 7.22119 1.40996 
17.4268 5.62708 2.7527 
20.176 5.80184 2.83921 
21.5183 4.33378 1.31126 
21.6832 7.314 1.50214 
22.8726 5.69746 2.73176 
24.4306 7.09856 1.42715 
24.5015 7.22849 4.02378 
23.0455 5.9025 0.0248051 
28.7061 5.78454 2.85646 
24.6683 4.1673 1.31813 
27.4162 4.19184 1.81609 
27.4785 7.12368 1.32125 
25.7904 5.57791 2.92393 
28.4997 5.4561 0.122309 
25.8851 5.92789 0.0167568 
1.56029 10.0871 1.45259 
2.82173 8.59639 2.82113 
3.01319 11.5234 2.79226 
0.128488 8.4316 2.8095 
4.32857 10.0683 1.48804 
7.20668 10.2904 1.32025 
5.70512 8.73079 2.75609 
5.92271 11.5523 2.74407 
5.70454 8.49055 0.0689428 
5.76837 11.5149 0.0263967 
10.0863 10.0346 1.41373 
8.56746 8.58723 2.6478 
11.3259 8.67625 2.87126 
8.65666 11.431 2.66598 
11.646 11.5388 2.7668 
11.5551 8.57428 0.0643734 
11.2559 11.4628 0.000192112 
12.7506 10.0964 1.39871 
15.7536 9.94428 1.24953 
14.315 8.58065 2.89699 
14.2509 11.5273 2.83762 
14.2805 8.50192 0.233644 
18.6133 10.1424 1.40103 
17.2346 8.56649 2.95274 
20.028 8.72138 2.90697 
17.1273 11.5473 2.83574 
19.993 11.4874 2.83503 
17.2809 8.60686 0.191204 
20.1024 11.5526 0.0181116 
20.1129 8.60833 0.009889 
17.2834 11.4867 0.011512 
21.5911 9.90999 1.26711 
24.4986 9.91607 1.31331 
23.1174 8.6677 2.84129 
22.9171 11.3927 2.83494 
22.8967 11.549 0.0891448 
28.6771 11.4059 2.65594 
27.4778 9.96497 1.30302 
26.0698 8.45079 2.60565 
25.9467 11.4032 2.76177 
25.693 11.5143 0.0192162 
1.32394 13.0492 1.33957 
1.45398 15.8104 1.5367 
1.44672 12.8449 4.07884 
3.06952 14.363 2.79786 
0.046407 14.3992 2.9283 
0.0161517 14.4312 0.0100597 
4.44839 13.057 1.25131 
7.1624 13.0125 1.32208 
4.47008 15.7028 1.48562 
7.12334 15.7763 1.44844 
5.74151 14.3038 2.81141 
5.79388 14.4858 0.0594762 
9.99201 13.0619 1.37517 
9.86955 15.6279 1.47853 
8.61731 14.2979 2.87405 
11.5078 14.4566 2.76425 
8.54586 14.326 0.00967887 
12.8476 12.9104 1.16823 
15.7991 13.0739 1.30409 
12.9568 15.748 1.55428 
15.8179 15.7358 1.37402 
14.3266 14.253 2.78937 
18.474 13.0521 1.61423 
18.7325 15.9178 1.44314 
17.1745 14.4193 2.93694 
18.5566 15.7473 4.09983 
20.0354 14.3942 2.83008 
20.0184 14.36 0.0248046 
21.4286 12.8903 1.46508 
24.4911 12.9514 1.39516 
21.4979 15.8236 1.53668 
22.9372 14.237 2.91929 
24.3443 15.8043 1.546 
22.8325 14.3219 0.0249604 
27.2609 13.1373 1.44355 
27.3565 15.8871 1.40501 
25.8515 14.4639 2.79539 
1.38439 18.6142 1.62056 
3.0241 17.2357 2.93854 
2.73677 20.0848 3.04025 
2.83483 20.2675 0.00381822 
2.82504 17.1483 0.188485 
4.28174 18.6756 1.37826 
7.28757 18.6822 1.55521 
5.67079 17.2629 2.9507 
5.86113 20.1072 2.98621 
5.88808 17.3267 0.190588 
10.0405 18.7217 1.47477 
8.62756 17.3565 2.82145 
11.531 17.1188 2.76417 
8.54339 20.1458 3.07807 
11.387 20.1382 2.90035 
11.4569 17.2841 0.003467 
8.62397 20.1961 0.198247 
8.66343 17.321 0.043644 
12.7244 18.7523 1.46727 
15.6516 18.7375 1.54251 
12.9448 18.5686 3.97344 
14.354 17.2183 2.71291 
14.1945 20.1552 3.00495 
14.2363 20.1237 0.16765 
18.7904 18.8175 1.3868 
17.0604 17.1932 2.7307 
20.1507 17.3182 2.95753 
17.1239 20.1178 2.85862 
20.1292 20.173 2.8732 
17.0072 17.2164 0.0938842 
17.0903 20.0122 0.0468189 
20.0991 17.0634 0.0158057 
21.373 18.5561 1.39824 
24.4225 18.6314 1.49143 
22.9233 17.4099 3.11318 
22.9479 19.9914 2.73707 
23.0401 17.2106 0.0993735 
28.6375 17.2501 2.9484 
28.5724 20.0616 2.97234 
27.238 18.4754 1.38008 
25.7846 17.1967 2.93364 
25.8411 20.0465 2.66768 
28.596 20.1732 0.128487 
1.32039 21.493 1.54284 
1.30258 24.3239 1.42388 
2.80372 22.9012 2.79715 
0.0698592 22.9363 3.05431 
4.18403 21.6711 1.43489 
7.15691 21.3995 1.54389 
5.59761 22.9334 2.87522 
4.25639 24.4919 1.48829 
5.86956 22.9203 0.0788984 
10.0133 21.5516 1.50912 
8.5641 23.0425 3.07949 
11.3689 23.0834 2.82019 
9.87027 24.5082 1.41667 
8.67359 22.9939 0.0552244 
11.5924 23.0431 0.103533 
12.7304 21.4544 1.52272 
15.8291 21.5087 1.44999 
12.9398 24.4355 4.06711 
14.3434 22.9222 2.80689 
13.0521 24.4312 1.50099 
15.8951 24.4544 1.57507 
14.5005 22.9634 0.250381 
18.5294 21.556 1.2293 
18.4948 24.5135 1.55888 
17.0446 22.9567 2.84069 
20.0027 22.9803 2.60317 
21.4464 21.484 1.25465 
24.3538 21.7099 1.34902 
21.3725 24.4376 1.33763 
24.533 21.5471 4.07337 
22.8414 22.9279 2.85941 
24.3317 24.2683 4.09891 
24.3401 24.5147 1.53696 
22.9292 22.9904 0.0334634 
28.7105 23.0636 0.0506648 
27.1955 21.7464 1.35912 
27.4722 24.4336 1.55344 
25.9336 23.0044 2.9406 
1.49279 27.3743 1.39393 
2.75084 25.6232 2.95502 
0.0979827 25.7982 2.94323 
0.0317433 25.8953 0.0601884 
4.04833 27.2948 1.59815 
6.93765 24.6728 1.53258 
7.16205 27.3691 1.41089 
5.71948 26.1506 2.85694 
8.57152 28.6784 2.89068 
11.4919 28.556 0.0174331 
10.0523 27.3895 1.48035 
8.49465 26.0186 2.84347 
11.5138 25.8285 2.74524 
12.8802 27.4087 1.32869 
15.8441 27.3032 1.42071 
12.697 27.3139 4.08118 
14.4273 25.9491 2.97595 
14.3589 25.8693 0.0434217 
20.2171 28.6991 2.88538 
18.7364 27.3248 1.46251 
17.0938 25.9451 3.11706 
20.1515 25.9061 2.92745 
19.9859 25.7808 0.0286671 
23.023 28.6048 2.83503 
21.576 27.2979 1.61346 
22.8847 25.5542 2.91448 
24.4462 27.0971 1.50284 
27.2685 27.1185 1.58138 
25.8088 25.6172 2.91802 
25.8822 25.6317 0.11306 
1.44119 1.60381 4.41823 
1.35849 1.47343 7.18325 
2.86095 2.88638 5.70196 
0.00608584 2.8066 6.01509 
0.142572 0.0254082 5.88199 
4.19833 1.45481 4.41784 
6.99769 1.52086 4.33846 
4.3457 1.60679 7.39302 
7.11771 1.4901 7.07926 
5.85173 3.03801 5.84003 
5.69031 0.0519872 5.81647 
10.0426 1.38913 4.51256 
10.0665 1.56302 7.20331 
8.67737 3.01383 5.75421 
11.4939 2.98606 5.77996 
8.48874 0.0751239 5.70146 
13.0734 1.44002 4.37478 
15.8888 1.44876 4.26644 
12.9394 1.55676 7.11016 
15.6951 1.46926 7.02642 
14.3074 3.04465 5.91818 
14.2785 0.021144 5.7996 
18.7616 1.54986 4.38619 
18.7775 1.49227 7.1379 
17.3398 2.90618 5.56417 
20.3392 3.01426 5.78562 
17.3414 0.00742807 5.75153 
21.6511 1.50875 4.3619 
24.2093 1.29839 4.40557 
21.5823 1.53659 7.19179 
24.5306 1.43021 7.10609 
23.0941 2.83718 5.81127 
27.6217 1.37109 4.42293 
27.2258 1.41179 7.25477 
26.0288 2.8315 5.64344 
25.9082 0.0416425 5.61375 
1.45872 4.3898 4.39501 
1.29191 7.14425 4.28495 
1.63386 4.2346 7.2951 
1.1353 7.26018 7.18882 
2.79561 5.83026 5.80063 
0.0813608 5.59285 5.81338 
7.22566 4.41616 4.24628 
4.24916 4.24985 4.31146 
4.21396 7.19297 4.48564 
7.0964 7.25601 4.19734 
4.41016 4.44804 7.34074 
4.3171 7.30959 7.15425 
7.23646 4.40564 7.20705 
5.66618 5.82649 5.63027 
7.16606 7.26125 7.11581 
10.0104 4.43856 4.28232 
9.93039 7.27493 4.20226 
10.1251 4.5502 7.15426 
8.73966 5.95863 5.89183 
10.0571 7.2014 7.53192 
11.4884 5.91139 5.77427 
15.8705 4.45044 4.38557 
12.9142 4.32701 4.28247 
12.9129 7.36182 4.40192 
15.6363 7.27792 4.437 
12.8066 4.22553 7.18079 
15.7758 4.41367 7.34433 
13.0808 7.06915 7.03085 
14.5244 5.65005 5.7838 
15.9241 7.23083 7.31853 
18.6737 4.40619 4.36698 
18.6814 7.18739 4.23213 
18.7893 4.32437 7.16078 
17.3322 5.82931 5.70092 
18.6768 7.19037 7.07142 
20.1359 5.67089 5.8 
21.6484 4.45561 4.29044 
24.4864 4.17411 4.12753 
21.6192 7.24521 4.24211 
21.6737 4.24497 7.29414 
21.6399 7.29202 7.12582 
23.1529 5.83905 5.56435 
24.4904 7.20502 7.07792 
24.3585 4.28993 7.10147 
27.3546 4.22834 4.30807 
27.2966 7.05621 4.33612 
27.2012 4.47333 7.0945 
25.8574 5.70435 5.64581 
27.219 7.10444 7.29526 
1.29943 10.0729 4.21022 
1.40066 10.1021 7.12028 
2.96695 8.64061 5.73961 
2.84385 11.4079 5.65044 
0.23686 11.7033 5.7778 
4.32587 9.92207 4.28499 
7.19658 10.1484 4.24145 
4.23513 10.1975 7.27336 
5.86231 8.67931 5.87692 
7.23891 10.2162 7.23386 
5.55796 11.519 5.7822 
9.89987 10.2425 4.3438 
8.58992 8.68793 5.88601 
9.88161 10.0576 7.06478 
11.3444 8.64367 5.79615 
8.68458 11.6332 5.72391 
11.635 11.4877 5.69824 
12.9243 10.0199 4.22689 
15.7456 10.1234 4.14571 
12.9306 10.0198 7.02849 
14.3631 8.61895 5.80134 
15.9966 9.966 7.1571 
14.4293 11.4837 5.68826 
18.6853 9.94098 4.40964 
17.1754 8.58126 5.75578 
18.7604 10.0336 7.20004 
20.2901 8.5914 5.76884 
17.2161 11.6102 5.80424 
20.0375 11.4576 5.68664 
21.7671 9.9787 4.19559 
21.4765 10.1389 7.22642 
23.1949 8.7431 5.84997 
22.9968 11.5407 5.82387 
24.6077 10.2121 7.14331 
24.6707 10.0732 4.1858 
27.4702 10.0131 4.33133 
28.5885 8.59626 5.56029 
26.1002 8.48879 5.77861 
27.4943 10.0573 6.98447 
25.928 11.4993 5.71576 
1.36924 15.7569 4.37683 
1.42425 12.8911 7.23668 
1.39063 15.7796 7.19741 
2.64846 14.2366 5.64137 
0.0240782 14.335 5.6757 
4.25081 13.0703 4.28398 
4.44202 15.6061 4.37777 
7.25295 13.0204 4.42464 
7.26281 15.7065 4.37858 
4.14053 12.8462 7.36452 
7.14332 12.9368 7.40094 
4.30444 15.5717 7.12457 
5.78568 14.3588 5.74211 
7.19092 15.8178 7.38655 
10.133 12.9184 4.35422 
9.96901 15.806 4.30567 
10.1879 13.0321 7.14045 
8.60468 14.2754 5.76422 
9.95991 15.6154 7.12397 
11.5123 14.5495 5.67205 
13.039 12.9795 4.39713 
15.8069 12.9396 4.22232 
12.9249 15.8277 4.15047 
15.6358 15.6261 4.23553 
12.8202 12.9287 7.14877 
15.6114 12.8758 7.29014 
12.7657 15.8208 7.18035 
14.393 14.2212 5.75873 
15.7386 15.7094 7.23736 
18.5398 12.9243 4.26565 
18.8697 13.0295 7.14848 
17.2257 14.4626 5.75757 
18.6351 15.8217 7.00706 
19.9951 14.2805 5.42259 
21.6203 12.8382 4.3691 
21.2242 15.7766 4.19162 
24.2723 15.5655 4.5305 
24.4084 12.8046 4.40487 
21.5763 12.8675 7.0945 
24.4265 12.9287 7.30163 
21.2244 15.8218 7.0913 
22.7868 14.4761 5.79494 
24.2907 15.6959 7.18381 
27.3235 12.8353 4.25307 
27.0899 15.7818 4.33666 
27.5117 12.7459 7.2949 
25.8935 14.2517 5.67427 
27.2164 15.7309 7.04675 
1.258 18.554 4.41424 
1.40962 18.8613 7.12652 
2.96784 17.0383 5.71872 
2.93813 19.8778 5.66943 
0.0528857 20.0945 5.84161 
4.36486 18.712 4.41645 
6.94442 18.5473 4.31522 
4.23716 18.7299 7.22983 
5.60159 17.1186 5.94215 
7.28917 18.7671 7.23503 
5.86449 20.2186 5.91927 
10.0036 18.7755 4.35557 
8.48965 17.2547 5.6417 
10.0135 18.6219 7.08941 
11.4888 17.2949 5.5482 
8.58968 20.1881 5.83863 
11.4061 20.1366 5.76674 
15.6037 18.4871 4.32681 
12.9411 18.6958 6.97628 
14.3233 16.9985 5.68688 
15.7013 18.7003 7.11738 
14.1494 20.1673 5.63959 
18.6136 18.6653 4.3052 
17.0458 17.124 5.70487 
18.6484 18.6654 6.99109 
20.0157 17.2845 5.61205 
17.0622 20.0702 5.62609 
19.9826 20.3041 5.68082 
21.4447 18.8669 4.21468 
24.3866 18.7251 4.24823 
21.4199 18.721 6.95583 
22.7543 17.0906 5.51899 
24.249 18.765 7.16559 
22.9783 20.2032 5.60363 
27.3654 18.5978 4.44058 
28.6762 17.0475 6.00844 
25.5997 17.2234 5.51675 
27.2653 18.6891 7.11437 
26.0455 20.1299 5.8094 
1.35552 21.4712 4.32524 
1.51724 24.4334 4.37667 
1.58808 21.7198 7.18039 
2.9408 22.9847 5.70316 
1.43098 24.4445 7.39234 
0.0991163 22.9556 5.76343 
4.28189 21.3569 4.32424 
7.22794 21.592 4.3619 
7.13781 24.4293 4.35566 
4.55486 24.5972 4.33552 
4.24817 21.4576 7.17576 
7.15552 21.5251 7.36165 
4.37753 24.4658 7.32024 
5.83869 22.8846 5.79062 
7.20855 24.3957 7.31289 
10.0346 21.5653 4.24268 
9.99462 21.5914 7.28876 
8.65417 23.0941 5.57175 
10.1851 24.4384 7.22129 
11.576 23.1571 5.62609 
12.9115 21.5658 4.19898 
15.6381 21.4748 4.27194 
15.5434 24.2065 4.24375 
12.7868 21.6288 6.98864 
15.8565 21.4393 7.02149 
14.3348 23.0757 5.71951 
15.8359 24.4737 7.2601 
12.9311 24.5996 7.06226 
18.7131 21.8444 4.16004 
18.597 24.5333 4.25725 
18.4895 21.6372 7.10056 
17.1251 22.9277 5.49489 
18.7745 24.5218 7.14073 
20.0548 23.0068 5.61905 
21.4563 21.5945 4.25531 
21.5309 24.4502 4.45553 
21.59 21.5968 7.19939 
21.583 24.1478 7.23724 
22.9089 22.9456 5.58048 
24.4821 21.643 7.03596 
24.4293 24.4975 7.21445 
27.3354 21.487 4.37269 
27.2676 24.3692 4.42556 
27.1988 21.736 7.16466 
25.9837 23.0656 5.59659 
27.3064 24.4615 7.11165 
1.25371 27.174 4.24953 
2.95979 28.6751 5.9511 
1.59221 27.2034 7.38183 
2.90982 25.754 6.08095 
0.248755 25.6244 5.88388 
4.2699 27.2496 4.40001 
7.23512 27.3805 4.39242 
4.459 27.2458 7.22239 
5.86928 25.8396 5.83259 
7.16219 27.2783 7.28637 
9.94659 24.7112 4.23711 
10.0669 27.3326 4.30825 
11.7465 28.6978 5.66628 
8.57877 26.0939 5.8354 
10.1428 27.323 6.99557 
11.5077 25.8345 5.75253 
15.7232 27.399 4.42932 
12.9537 27.2911 7.16535 
14.453 25.7723 5.65706 
15.8652 27.126 7.10978 
18.6451 27.3955 4.11298 
20.1902 28.682 5.75689 
17.2646 25.772 5.73393 
18.8507 27.2046 7.06189 
20.1683 25.9807 5.62919 
21.7083 27.2655 4.2224 
24.3678 27.2385 4.26283 
22.8998 28.6515 5.90125 
21.5882 27.3014 7.28999 
22.9619 25.9027 5.66304 
24.4095 27.3707 7.26458 
27.3032 27.1672 4.1019 
25.946 25.736 5.88802 
27.2928 27.4955 7.1174 
2.84413 2.93147 8.69674 
1.35324 1.46471 10.0748 
2.89567 2.93134 11.4749 
0.155097 2.95531 11.5385 
5.8351 2.93933 8.65983 
4.27519 1.36192 10.2898 
7.32617 1.52148 10.1841 
5.69067 3.05552 11.5079 
5.78862 0.00112831 11.4611 
8.66744 2.97288 8.57782 
11.6154 2.82871 8.63306 
8.60552 0.155547 8.59324 
11.5192 0.0375294 11.6452 
10.0201 1.50564 10.0392 
8.61952 2.91268 11.6071 
11.6416 2.80794 11.5966 
14.2738 3.03059 8.60511 
14.439 0.059528 11.4834 
13.1573 1.2342 10.0449 
15.7701 1.42195 9.93462 
14.3978 2.82218 11.373 
17.3197 2.92378 8.40193 
20.2308 2.8421 8.72589 
20.2011 0.0108108 8.52759 
18.5463 1.59328 9.90341 
17.0852 2.80517 11.4365 
20.0755 2.83263 11.3049 
23.0928 2.92565 8.51965 
21.7983 1.50882 10.1088 
24.2579 1.46952 10.1867 
23.0708 2.97705 11.5031 
28.7016 2.86985 8.7287 
28.6254 0.118947 8.81469 
25.7791 2.92775 8.50537 
25.9202 0.00133932 8.79618 
25.8355 0.0751098 11.6353 
27.1851 1.50259 10.1689 
25.8741 3.02525 11.4677 
28.6533 0.225614 11.6031 
2.96475 5.77993 8.59916 
1.48252 4.30945 10.0843 
1.31932 7.13286 10.0992 
2.85622 5.71296 11.4605 
0.0793776 5.56796 11.4926 
5.90027 5.78348 8.79393 
4.17096 7.19751 10.0016 
4.37796 4.36729 10.1308 
7.12691 4.37239 10.1723 
7.11144 7.15317 9.94932 
5.79035 5.81582 11.5207 
8.64986 5.75272 8.71377 
11.7191 5.81369 8.60972 
10.1814 4.22623 9.92311 
10.1724 7.12248 10.0251 
8.56553 5.84843 11.3987 
11.4032 5.76447 11.5006 
14.2777 5.60751 8.69642 
16.0218 4.23693 10.0153 
12.9016 4.1498 10.1745 
13.0964 7.22827 10.1348 
15.9198 7.11975 10.0151 
14.3141 5.62675 11.3057 
17.366 5.79048 8.6145 
20.1643 5.77145 8.49009 
18.7982 4.36658 9.92431 
18.7355 7.1162 10.0942 
17.1342 5.72509 11.6235 
20.1819 5.69853 11.5581 
23.1776 5.80357 8.367 
21.6319 4.32804 9.99838 
21.5522 7.08825 10.0446 
23.0395 5.70168 11.4586 
24.3701 7.37989 9.95224 
24.3679 4.48667 10.1673 
28.5604 5.76242 8.69441 
25.8366 5.90303 8.79569 
27.198 4.35978 9.92922 
27.3564 7.19634 10.2189 
25.7899 5.75869 11.497 
2.89163 8.68561 8.67927 
2.83983 11.5542 8.71181 
1.3274 9.95796 9.97955 
2.76844 8.70566 11.4781 
2.76936 11.5169 11.4634 
0.130826 8.61928 11.5012 
5.79307 8.82736 8.74221 
5.59517 11.5261 8.78545 
4.32452 10.1334 10.0422 
7.05988 10.0908 10.3802 
5.70916 8.49332 11.6051 
5.74354 11.3559 11.4173 
8.57578 8.55223 8.84957 
11.5772 8.67636 8.58011 
8.57832 11.4417 8.6549 
11.5229 11.4857 8.57841 
10.0582 10.0188 10.148 
8.53528 8.6229 11.526 
11.4998 8.644 11.4896 
8.79014 11.4292 11.6007 
11.3129 11.5035 11.6037 
14.4522 8.65109 8.69825 
14.2683 11.3886 8.52149 
12.8773 10.0985 10.1055 
15.7993 10.2914 9.87398 
14.3617 8.83716 11.462 
14.2628 11.4203 11.5211 
17.2974 8.52277 8.68945 
20.1166 8.4893 8.66463 
17.351 11.706 8.55092 
20.1431 11.6453 8.68767 
18.5763 10.1296 10.0916 
17.3417 8.69669 11.4256 
20.1616 8.65711 11.3707 
17.3283 11.5816 11.7846 
20.1314 11.5438 11.2605 
23.1177 8.62712 8.53269 
22.9854 11.5801 8.61598 
21.4781 10.0034 9.96757 
22.9633 8.48979 11.4184 
23.0574 11.278 11.4668 
24.4766 10.088 10.0937 
28.6673 11.4779 8.88197 
28.601 8.66541 8.72375 
26.1119 8.81222 8.61684 
26.1256 11.313 8.64553 
28.6719 11.386 11.5482 
27.2631 10.0669 10.3628 
25.79 8.57326 11.32 
25.7761 11.6215 11.587 
2.7934 14.4953 8.69308 
1.33217 13.0211 10.1976 
1.23858 15.8302 10.1755 
2.72245 14.5261 11.6652 
5.63841 14.2828 8.66343 
4.21148 13.0138 10.2581 
7.01897 12.8478 10.0195 
4.23396 15.9621 10.1796 
7.1482 15.79 10.0653 
5.75301 14.5991 11.4548 
8.46758 14.3451 8.92055 
11.4548 14.3251 8.66761 
10.0027 12.8244 10.1308 
9.9676 15.6504 10.211 
8.60709 14.4643 11.677 
11.5732 14.3872 11.5457 
14.2995 14.3399 8.55206 
12.914 12.7659 10.0134 
15.6902 12.7499 10.2761 
12.9695 15.7593 9.90165 
15.8337 15.6882 9.91041 
14.345 14.4983 11.5118 
17.1223 14.132 8.5221 
19.9261 14.4492 8.63146 
18.5237 12.9653 10.159 
18.6724 15.7785 10.0509 
17.2015 14.4081 11.4751 
20.1244 14.4724 11.4043 
23.0107 14.3101 8.4846 
21.5491 13.033 10.0363 
21.5637 15.7063 9.90012 
23.1201 14.2834 11.3695 
24.4829 12.7373 9.99354 
24.4643 15.8673 9.91822 
28.6838 14.2686 8.68396 
25.8439 14.4206 8.35919 
28.5722 14.3816 11.543 
27.2371 12.8643 10.1281 
27.1764 15.6262 9.85778 
25.8036 14.3287 11.3462 
2.72087 17.3416 8.59491 
2.89657 20.218 8.74922 
0.0223777 17.2218 8.70958 
1.36194 18.9449 10.0586 
2.70732 17.4618 11.5409 
2.95488 20.1542 11.6313 
5.61065 17.3424 8.72442 
5.58171 20.0596 8.75913 
4.12398 18.6906 10.2244 
7.26758 18.7219 10.0576 
5.79587 17.4319 11.4266 
5.83713 20.1076 11.5221 
8.79491 17.3031 8.70427 
11.4378 17.096 8.55708 
8.57085 20.119 8.59424 
11.4887 20.0756 8.40316 
10.0265 18.5089 10.0676 
8.70091 17.2419 11.5244 
11.6511 17.3231 11.3364 
8.75836 20.0816 11.3926 
11.6527 20.0792 11.3053 
14.4251 17.2661 8.58912 
14.4491 20.0061 8.52484 
12.9547 18.6143 9.83665 
15.8885 18.7397 9.96398 
14.4545 17.3403 11.4927 
14.5157 20.1207 11.374 
17.3204 17.2192 8.47766 
20.0282 17.3403 8.65237 
17.1848 19.9468 8.44953 
20.0697 20.0789 8.48148 
18.7377 18.6319 10.0038 
17.0909 17.3004 11.3936 
20.1067 17.2234 11.322 
17.1142 20.2866 11.4514 
19.9155 20.2074 11.48 
22.9019 17.1857 8.5214 
22.937 20.0386 8.52141 
21.5754 18.5889 10.1107 
22.9838 17.1313 11.2935 
22.8854 19.9917 11.3566 
24.3869 18.7422 10.0454 
28.6604 20.2674 8.79778 
25.8384 17.1862 8.41624 
25.8169 20.1138 8.56614 
28.6678 17.1803 11.62 
28.5212 20.1649 11.6128 
27.2306 18.691 10.1323 
25.8606 17.1473 11.4846 
25.785 20.0705 11.6612 
2.93904 23.0377 8.77652 
1.53628 21.5832 10.189 
1.29233 24.3576 10.2375 
2.95438 23.1103 11.4601 
5.86655 23.0035 8.65013 
7.27263 24.5234 10.1314 
4.35385 21.7186 10.0292 
7.2274 21.4866 10.0647 
4.5161 24.4977 10.1064 
5.81887 22.9362 11.5862 
8.59383 22.966 8.6163 
11.5051 23.1107 8.66177 
10.3119 24.4971 10.2148 
10.0365 21.5963 10.1111 
8.7232 22.8988 11.5867 
11.6181 22.9406 11.601 
14.3928 22.9869 8.49725 
12.9634 21.344 10.04 
15.9333 21.5519 9.80108 
13.0134 24.3436 10.1326 
15.806 24.4221 9.79713 
14.3849 22.94 11.5067 
17.318 22.9832 8.51731 
20.2575 23.0498 8.62917 
18.6835 21.4591 9.59836 
18.6602 24.4178 9.95549 
20.2283 23.1353 11.1528 
17.1709 23.0859 11.352 
23.0311 22.9896 8.55146 
22.9956 22.9398 11.4094 
21.5828 21.3655 9.78979 
24.5094 24.3993 9.88568 
21.6618 24.5119 10.1064 
24.4637 21.5 10.0843 
28.6747 23.0007 8.67135 
25.7121 22.9613 8.66647 
28.4934 22.9587 11.4089 
27.202 24.3562 9.95109 
25.9783 23.0782 11.5307 
27.1594 21.4949 10.2142 
2.84997 28.6427 8.71518 
3.02601 25.8056 8.79547 
0.119248 25.856 8.74135 
0.0179096 25.815 11.6738 
3.00974 25.7964 11.5289 
1.34504 27.4472 10.1598 
2.82344 28.6962 11.7661 
5.59708 28.6772 8.68803 
5.75905 25.984 8.87825 
4.29039 27.3567 10.139 
7.18005 27.3862 9.98 
5.79324 25.9688 11.4934 
11.6286 28.6287 8.70122 
8.67688 25.9502 8.64568 
11.5847 25.899 8.68124 
10.1703 27.3196 9.96089 
8.62803 28.6424 11.5345 
8.75199 25.8787 11.6443 
11.6243 25.8278 11.5783 
14.4772 28.69 8.42539 
14.2502 25.8488 8.59847 
13.0041 27.1699 10.2441 
15.6807 27.2217 9.92877 
14.5184 25.8034 11.5639 
17.2568 28.5308 8.64541 
17.3279 25.6855 8.426 
20.2052 25.7984 8.68259 
20.1197 28.6582 11.3604 
17.4202 28.6479 11.5198 
20.1102 25.8569 11.6351 
18.7827 27.2585 10.0681 
17.1968 25.8936 11.4113 
22.8904 28.6626 8.62498 
22.8336 25.9471 8.61382 
23.0813 28.424 11.7175 
23.0675 25.9892 11.4734 
24.3567 27.4022 10.0519 
21.6121 27.251 10.1792 
25.8914 25.8856 8.69874 
25.8813 25.7026 11.4937 
27.2183 27.3019 10.2054 
1.31257 1.48814 12.86 
2.86944 0.0254319 14.3418 
1.47102 1.50963 15.7429 
2.86544 2.88966 14.3638 
4.4276 1.46597 12.9678 
7.25192 1.45732 12.9631 
4.40909 1.56573 15.8624 
7.18525 1.41233 15.9282 
5.80803 2.81541 14.4573 
5.65702 0.168448 14.4055 
10.0662 1.43215 12.9281 
11.5039 2.67052 14.2746 
8.58892 2.85708 14.2374 
10.0656 1.62118 15.7737 
13.031 1.3063 13.1618 
15.7617 1.31181 12.8238 
14.3404 2.78429 14.3215 
13.0213 1.34531 15.8897 
15.7336 1.31744 15.7402 
18.7692 1.55355 12.7397 
17.2313 0.0196983 14.3388 
20.0553 2.98895 14.1621 
17.3492 2.86381 14.3341 
18.7554 1.37234 15.5464 
21.5936 1.38287 12.7893 
24.5529 1.51232 12.9158 
22.9608 2.79882 14.3308 
21.4401 1.42768 15.7286 
24.3704 1.48581 15.8852 
23.1022 0.0991612 14.4716 
27.237 1.53666 13.0886 
28.6927 2.76532 14.4657 
27.1908 1.4258 15.9692 
25.9051 2.91163 14.4715 
1.61149 4.3113 12.8217 
1.55851 7.23379 13.0401 
2.96404 5.78818 14.2985 
0.056739 5.61289 14.2829 
1.47285 4.32475 15.7298 
1.39695 7.105 15.763 
4.44827 4.14335 13.0339 
7.22643 4.33061 12.9068 
4.34915 7.19935 13.0571 
7.2321 6.9526 12.9744 
7.32327 4.37235 15.7604 
4.24172 4.3909 15.7749 
4.31778 7.17001 15.9974 
7.24279 7.16853 15.8342 
5.87449 5.9149 14.4383 
10.0366 4.32684 12.7514 
10.0447 7.11345 13.1584 
10.2223 4.18664 15.8147 
10.2437 7.10393 15.8638 
11.5501 5.66301 14.523 
8.76797 5.67424 14.4079 
12.9025 4.32524 12.847 
15.6664 4.2121 12.7291 
12.8406 7.22657 12.8924 
15.8108 7.26559 12.7466 
14.4479 5.70511 14.1916 
12.9865 4.42122 15.8801 
15.985 4.27347 15.5929 
12.919 7.14457 15.8856 
15.8066 7.08101 15.7856 
18.8092 4.27837 12.7785 
18.744 7.11175 12.9128 
17.2342 5.64534 14.2688 
18.6409 4.37674 15.7576 
18.5033 7.01989 15.8543 
19.9711 5.66932 14.3864 
24.3553 4.28417 13.039 
21.5707 4.4238 12.8633 
21.5699 7.18952 12.9104 
24.3316 7.15293 12.7386 
23.0752 5.80758 14.1955 
21.4633 4.39592 15.6181 
21.4668 7.19697 15.8083 
24.3061 7.10549 15.7892 
24.3012 4.20452 15.6542 
27.4127 4.30138 12.9352 
27.3419 6.94858 12.7843 
27.4236 4.35067 15.8687 
27.3015 7.12307 15.9355 
25.8138 5.71111 14.3897 
1.46868 9.95336 12.8807 
2.8039 11.4618 14.2404 
0.0650753 8.51 14.2628 
1.5124 10.0456 15.6872 
0.0678322 11.3864 14.5357 
3.01344 8.74614 14.3861 
4.43812 10.0877 12.9907 
7.3238 10.0521 13.1366 
5.85542 11.4134 14.2805 
4.34383 9.91235 15.8877 
7.45201 10.0728 15.9421 
5.76085 8.56489 14.4249 
10.1183 10.1619 13.0393 
11.4576 8.57188 14.275 
8.61434 11.4987 14.3366 
9.94971 9.80433 15.879 
11.4464 11.6106 14.358 
8.53461 8.51646 14.3688 
12.8803 10.016 12.8661 
16.0749 9.98324 12.916 
14.5565 8.67554 14.2001 
12.9674 9.88621 15.869 
15.7037 10.0433 15.8758 
14.3082 11.2343 14.3764 
18.7699 10.0705 13.0016 
17.232 11.5866 14.2727 
18.5272 10.0607 15.8342 
17.4573 8.54637 14.4065 
19.9368 8.65257 14.4549 
20.0198 11.6596 14.4338 
21.448 9.97987 12.907 
24.5031 9.88088 12.8582 
23.0726 11.489 14.2847 
22.9953 8.72141 14.0911 
21.606 10.1557 15.6283 
24.5189 10.0465 15.6714 
27.1251 9.97788 13.0678 
25.8511 8.44424 14.2866 
27.2022 9.77904 15.7496 
25.8152 11.6216 14.415 
1.44204 13.0287 12.9973 
1.58372 15.7656 12.9978 
3.08693 14.2314 14.3396 
1.51094 12.999 15.7296 
1.49728 15.8015 15.6284 
4.38695 12.849 12.7377 
7.15286 12.7661 12.8157 
4.34804 15.8702 12.8282 
7.14121 15.8738 12.9146 
5.83498 14.5452 14.2521 
4.47153 12.8988 15.6277 
7.17507 12.7559 15.7282 
4.39756 15.9287 15.6949 
7.3594 15.9361 15.795 
10.0072 12.9658 13.01 
10.1035 15.9818 12.8164 
11.4992 14.4662 14.2757 
8.53694 14.3009 14.3508 
9.90391 12.7912 15.8869 
10.0325 15.8887 15.8338 
12.7009 12.9514 12.9895 
15.7644 12.8455 13.0517 
12.9508 15.9395 12.7312 
15.974 15.839 12.9704 
14.0809 14.473 14.2808 
12.8092 12.84 15.8533 
15.6554 12.814 15.8149 
12.9088 15.8445 15.7355 
15.6823 15.5362 15.8989 
18.9019 12.9356 12.9366 
18.7633 15.5972 12.9991 
20.2044 14.3357 14.3234 
18.5391 12.7039 15.8706 
18.7721 15.5698 15.7875 
17.1077 14.2439 14.4421 
21.5771 12.8997 12.854 
21.6096 15.6462 12.6901 
24.3341 15.9317 12.8849 
24.2455 12.9003 12.9041 
23.0581 14.2988 14.3014 
21.5424 12.9603 15.5776 
24.4302 12.9173 15.8691 
21.5877 15.7719 15.7203 
24.077 15.7728 15.752 
27.2317 12.9995 12.9537 
27.3059 15.71 12.9801 
27.1714 12.9677 15.7522 
27.212 15.9129 15.7009 
25.8057 14.4444 14.4034 
28.7021 14.2661 14.4088 
1.32315 18.821 12.9449 
1.46118 18.7479 15.9348 
2.6915 20.1679 14.5781 
2.93442 17.4733 14.4869 
0.0299041 20.1785 14.5065 
4.23768 18.6867 12.9959 
7.27733 18.7001 12.9284 
5.83407 17.4847 14.3077 
4.41936 18.5979 15.8524 
7.41616 18.7262 15.8425 
5.94067 20.0633 14.3844 
10.0985 18.6624 13.005 
8.5296 17.2244 14.3552 
11.5261 17.2831 14.2692 
11.4202 20.0348 14.3167 
10.0164 18.5944 15.8401 
8.72043 20.0509 14.5432 
13.0581 18.6204 12.9352 
15.8995 18.846 13.1586 
14.3193 17.1157 14.3112 
12.9218 18.5377 15.606 
15.4949 18.4569 16.1785 
14.3339 20.0972 14.4086 
18.6337 18.4099 12.7317 
18.3078 20.3906 13.7495 
20.1946 17.3503 14.1061 
20.3555 20.0142 14.3102 
16.7205 20.0544 15.0117 
18.5123 18.6577 15.7334 
17.2997 17.0605 14.449 
21.5737 18.6673 12.8433 
24.4732 18.6964 13.1679 
22.8887 17.4678 14.2556 
22.925 20.043 14.2472 
21.5535 18.6067 15.7498 
24.368 18.7469 15.8189 
27.2603 18.7409 13.1568 
28.6156 17.2365 14.3406 
27.0986 18.7021 15.7448 
25.76 17.1528 14.534 
25.7806 20.1131 14.4868 
1.32599 21.5693 12.9758 
1.63692 24.4636 13.1285 
1.42046 21.7057 15.9909 
1.64698 24.5793 15.8738 
2.83166 22.8995 14.4698 
4.23601 21.604 13.0026 
7.25008 21.2647 12.785 
4.29156 24.374 13.004 
7.11263 24.3905 12.7138 
5.75092 22.8639 14.2348 
4.35344 21.5257 15.79 
7.1856 21.75 15.8239 
4.24032 24.5289 15.7775 
7.04147 24.406 15.6974 
10.0595 21.3879 12.9568 
10.1575 24.4731 12.9272 
8.67765 23.0806 14.3109 
11.5288 22.8786 14.2775 
10.0782 21.503 15.7583 
10.0926 24.4387 15.8666 
12.906 21.4758 13.0551 
15.7587 21.5859 13.1 
13.0049 24.3943 12.9724 
16.0423 24.5475 12.8229 
12.8635 21.5213 15.9048 
15.7442 21.7175 16.0876 
15.8723 24.3921 15.6814 
12.918 24.4504 15.7251 
14.3992 22.9678 14.4503 
18.7655 21.9878 12.4592 
18.6865 24.456 12.8293 
17.1406 22.9366 14.3165 
20.1182 22.9352 14.2308 
18.7099 21.4993 15.6778 
18.7239 24.339 15.4335 
24.5806 24.3572 13.0033 
21.7269 24.3413 12.7936 
21.5556 21.4684 12.7195 
24.4484 21.5587 12.8669 
23.0955 22.8671 14.2349 
21.5734 21.4174 15.7801 
24.4382 21.4344 15.7544 
21.4809 24.499 15.6385 
24.3752 24.3365 15.6622 
27.3445 21.3661 13.0886 
27.4014 24.2905 13.0587 
25.7826 22.856 14.2935 
28.6173 22.9405 14.4959 
27.1466 21.5003 15.8821 
27.2791 24.4278 15.9377 
1.23734 27.2081 13.0395 
1.57971 27.2579 15.893 
2.87189 25.9511 14.4705 
0.0314475 25.7689 14.4732 
4.33685 27.4219 12.7613 
7.12556 27.3184 12.8981 
4.33014 27.3925 15.7295 
7.12651 27.2265 15.5386 
5.69623 25.8509 14.3704 
11.6028 28.4972 14.2935 
10.1041 27.2373 13.0041 
8.56896 25.7971 14.2745 
8.64918 28.6849 14.3323 
9.9842 27.3834 15.7277 
11.5322 25.7588 14.387 
14.5146 25.8783 14.3201 
13.016 27.1408 12.8771 
15.7686 27.3863 12.8515 
14.331 28.6678 14.3968 
12.8854 27.2767 15.7806 
15.8161 27.2098 15.6913 
17.4129 25.9034 14.2852 
18.701 27.3184 12.9667 
20.2326 25.7974 14.2817 
18.7381 27.1588 15.8962 
20.2137 28.5806 14.3657 
21.6296 27.1401 13.2137 
23.1693 25.7968 14.3435 
21.6242 27.0395 15.8769 
24.3428 27.2266 15.7807 
27.1415 27.1279 12.8353 
24.6138 27.1905 12.9599 
28.622 28.6766 14.4726 
27.2603 27.0913 15.8646 
25.906 25.6673 14.3567 
25.838 28.6163 14.5194 
1.7131 1.45026 18.6295 
2.91981 2.86841 17.1865 
0.0124633 2.92702 17.3427 
2.96588 2.87558 20.0395 
2.93379 0.0183413 20.0472 
0.0427085 0.215083 20.0143 
4.3279 1.39505 18.6305 
7.20096 1.44828 18.6723 
5.90873 3.03154 17.2585 
5.73265 2.88565 20.0674 
10.0522 1.22527 18.6953 
8.76503 2.83296 17.2895 
11.6527 2.82895 17.3594 
11.6171 0.0229607 17.2061 
8.37879 2.80618 20.214 
11.4481 2.71241 20.0527 
13.1034 1.26106 18.6686 
15.9245 1.45286 18.7494 
14.3696 2.7043 17.1689 
14.4044 2.7605 20.0491 
18.9286 1.36028 18.7408 
17.3388 2.79283 17.1032 
20.0424 2.81888 17.1531 
17.397 2.76373 19.9796 
20.2725 2.71268 20.0679 
21.5564 1.24082 18.6019 
23.0316 2.89382 17.3452 
24.4991 1.3588 18.6087 
23.0556 2.76485 20.1738 
27.3495 1.55913 18.6316 
25.669 2.91765 17.287 
28.6636 2.94263 20.084 
25.6683 2.8526 20.1028 
25.8308 0.0381724 20.1473 
1.54292 4.36012 18.5598 
1.32198 7.11115 18.6734 
2.91086 5.76937 17.252 
2.82428 5.74366 20.027 
0.181024 5.58916 20.063 
4.39006 4.38092 18.591 
7.25687 4.40773 18.5929 
4.38825 7.29906 18.6988 
5.81218 5.63835 17.047 
7.13446 7.07332 18.535 
5.73932 5.58198 20.311 
10.0594 4.21255 18.6612 
8.76563 5.64433 17.0645 