ITEM: TIMESTEP
18042
ITEM: NUMBER OF ATOMS
18
ITEM: BOX BOUNDS pp pp pp
0.0000000000000000e+00 2.8712000000000000e+01
0.0000000000000000e+00 2.8712000000000000e+01
0.0000000000000000e+00 2.8712000000000000e+01
ITEM: ATOMS x y z c_cna 
17.2312 20.0959 11.3821 5 
20.0469 20.0959 11.5361 5 
15.8277 18.6735 12.9577 5 
14.2521 20.0959 14.3611 5 
15.6404 18.2582 15.9427 5 
16.4773 20.0959 15.1056 5 
18.8125 18.2584 12.7704 5 
17.9756 20.0959 13.6074 5 
17.2265 17.2618 14.3565 5 
18.6253 18.6735 15.7552 5 
20.2009 20.0959 14.3517 5 
15.8278 21.5182 12.9576 5 
15.6406 21.9333 15.9424 5 
18.8126 21.9335 12.7703 5 
18.6253 21.5182 15.7552 5 
17.2265 22.93 14.3564 5 
14.4062 20.0959 17.1768 5 
17.2219 20.0959 17.3308 5 
ITEM: TIMESTEP
18043
ITEM: NUMBER OF ATOMS
18
ITEM: BOX BOUNDS pp pp pp
0.0000000000000000e+00 2.8712000000000000e+01
0.0000000000000000e+00 2.8712000000000000e+01
0.0000000000000000e+00 2.8712000000000000e+01
ITEM: ATOMS x y z c_cna 
17.2312 20.0959 11.3821 5 
20.0469 20.0959 11.5361 5 
15.8277 18.6735 12.9577 5 
14.2521 20.0959 14.3611 5 
15.6404 18.2582 15.9427 5 
16.4773 20.0959 15.1056 5 
18.8125 18.2584 12.7704 5 
17.9756 20.0959 13.6074 5 
17.2265 17.2618 14.3565 5 
18.6253 18.6735 15.7552 5 
20.2009 20.0959 14.3517 5 
15.8278 21.5182 12.9576 5 
15.6406 21.9333 15.9424 5 
18.8126 21.9335 12.7703 5 
18.6253 21.5182 15.7552 5 
17.2265 22.93 14.3564 5 
14.4062 20.0959 17.1768 5 
17.2219 20.0959 17.3308 5 
