ITEM: TIMESTEP
18042
ITEM: NUMBER OF ATOMS
2001
ITEM: BOX BOUNDS pp pp pp
0.0000000000000000e+00 2.8712000000000000e+01
0.0000000000000000e+00 2.8712000000000000e+01
0.0000000000000000e+00 2.8712000000000000e+01
ITEM: ATOMS x y z c_cna 
1.43589 1.4331 1.43504 3 
2.87128 2.8688 2.87048 3 
0.00138663 2.86953 2.86944 3 
2.87047 2.86851 0.000507902 3 
4.30594 1.43282 1.43594 3 
7.17628 1.43303 1.43637 3 
5.74128 2.86865 2.87116 3 
5.74054 2.86869 0.00133453 3 
10.0471 1.43352 1.4362 3 
8.61168 2.86902 2.8712 3 
11.4827 2.8695 2.87083 3 
11.4827 2.86937 0.00142341 3 
8.61127 2.86905 0.00161144 3 
12.9186 1.43393 1.43577 3 
15.7904 1.43425 1.43529 3 
14.3543 2.86991 2.87035 3 
14.3546 2.86955 0.00100679 3 
18.6624 1.43444 1.43477 3 
17.2263 2.87022 2.86982 3 
20.0985 2.87042 2.86927 3 
17.2265 2.86965 0.000473996 3 
21.5345 1.43452 1.43426 3 
24.4064 1.43434 1.43398 3 
22.9707 2.87049 2.86884 3 
27.2776 1.43382 1.43419 3 
25.8425 2.87023 2.86881 3 
1.43595 4.3044 1.43496 3 
1.43599 7.17547 1.43495 3 
2.87127 5.73995 2.87042 3 
0.00123602 5.73999 2.86958 3 
2.87048 5.73986 0.000525935 3 
4.30589 4.30423 1.43588 3 
7.17614 4.30435 1.43636 3 
4.30589 7.17557 1.43586 3 
7.17611 7.17545 1.43638 3 
5.74122 5.73993 2.87113 3 
5.74054 5.73984 0.00134538 3 
10.0471 4.30459 1.4363 3 
10.047 7.17531 1.43636 3 
8.61168 5.73995 2.8713 3 
11.4828 5.73999 2.87109 3 
11.4827 5.73994 0.001496 3 
8.61128 5.73989 0.00165708 3 
12.9186 4.3048 1.43596 3 
15.7904 4.30494 1.43547 3 
12.9186 7.1752 1.43602 3 
15.7904 7.17514 1.43551 3 
14.3544 5.74002 2.8707 3 
14.3545 5.74002 0.00107539 3 
18.6624 4.30506 1.43494 3 
18.6624 7.17511 1.43499 3 
17.2264 5.74006 2.87023 3 
20.0984 5.74009 2.86971 3 
17.2265 5.74007 0.000518196 3 
21.5344 4.30508 1.43445 3 
21.5344 7.17509 1.43448 3 
22.9705 5.7401 2.86929 3 
24.4063 7.17511 1.43417 3 
24.4063 4.30498 1.43417 3 
27.2775 4.30472 1.43428 3 
27.2776 7.17523 1.43426 3 
25.8423 5.74004 2.86918 3 
1.43596 10.0469 1.43498 3 
2.8713 8.61119 2.87041 3 
2.87128 11.4828 2.87061 3 
0.00145944 8.61051 2.86936 3 
0.00140969 11.482 2.86947 3 
2.87053 11.4829 0.000499701 3 
2.87051 8.6113 0.000536 3 
4.30596 10.0471 1.43591 3 
7.17622 10.0468 1.43641 3 
5.74122 8.61126 2.87115 3 
5.74141 11.4829 2.87132 3 
5.74055 8.61109 0.00138519 3 
5.74076 11.4827 0.00131273 3 
10.0471 10.0464 1.43631 3 
8.61163 8.6109 2.87125 3 
11.4827 8.61047 2.87092 3 
8.61181 11.4824 2.87132 3 
11.4826 11.4817 2.87082 3 
11.4827 11.4818 0.00145584 3 
8.61139 11.4822 0.00165986 3 
8.61125 8.61076 0.00170235 3 
11.4827 8.61055 0.00153147 3 
12.9185 10.0461 1.43588 3 
15.7903 10.0458 1.43538 3 
14.3543 8.61015 2.87043 3 
14.3541 11.4811 2.87025 3 
14.3545 8.61048 0.00109202 3 
14.3545 11.4817 0.00100996 3 
18.6624 10.0457 1.43485 3 
17.2263 8.60989 2.86988 3 
20.0985 8.60972 2.86933 3 
17.2262 11.4807 2.86967 3 
20.0986 11.4803 2.86903 3 
20.0984 11.4816 5.30896e-05 3 
20.0985 8.61048 2.49912e-05 3 
17.2264 11.4816 0.000528618 3 
17.2265 8.61048 0.000539158 3 
21.5345 10.0456 1.43436 3 
24.4064 10.0457 1.43399 3 
22.9708 8.60966 2.86887 3 
22.9712 11.4802 2.86846 3 
27.2777 10.0462 1.43415 3 
25.8426 8.60987 2.86878 3 
25.8431 11.4807 2.86841 3 
1.43582 12.9185 1.43513 3 
1.43569 15.7898 1.43529 3 
2.87127 14.3542 2.87093 3 
0.00109131 14.3538 2.86985 3 
2.87053 14.3543 0.000469188 3 
4.30611 12.9187 1.436 3 
7.17658 12.9185 1.43645 3 
4.30622 15.7899 1.43612 3 
7.17699 15.7899 1.43653 3 
5.74169 14.3544 2.87162 3 
5.74107 14.3542 0.00118663 3 
10.0474 12.9181 1.43634 3 
10.0481 15.7897 1.43645 3 
8.61233 14.3541 2.87167 3 
11.4832 14.3537 2.8713 3 
8.61191 14.3539 0.00145299 3 
11.4832 14.3535 0.00128045 3 
12.9187 12.9177 1.43597 3 
15.7904 12.9173 1.43557 3 
12.9194 15.7894 1.43628 3 
15.7909 15.789 1.43605 3 
14.3546 14.353 2.87092 3 
14.3548 14.3533 0.000902486 3 
18.6624 12.9171 1.43508 3 
18.6624 15.7887 1.43567 3 
17.2265 14.3524 2.87051 3 
20.0988 14.352 2.86982 3 
20.0981 14.3532 0.000103756 3 
17.2264 14.3532 0.000502363 3 
21.5345 12.917 1.43456 3 
24.4063 12.9173 1.43416 3 
21.5341 15.7887 1.4351 3 
22.9712 14.352 2.86903 3 
24.4056 15.7892 1.43464 3 
27.2774 12.918 1.43437 3 
27.277 15.7895 1.43465 3 
25.8425 14.3531 2.86907 3 
1.43559 18.6608 1.4354 3 
2.87123 17.2253 2.87119 3 
2.87122 20.0962 2.87132 3 
2.87053 17.2254 0.000447438 3 
0.000845723 17.2251 2.87017 3 
0.000748063 20.0961 2.8703 3 
2.87048 20.0962 0.000446572 3 
4.30626 18.6608 1.43619 3 
7.1772 18.6608 1.43658 3 
5.74189 17.2254 2.87189 3 
5.74198 20.0962 2.87199 3 
5.74126 17.2253 0.00111233 3 
5.74131 20.0962 0.00110774 3 
10.0485 18.6607 1.43653 3 
8.61284 17.2254 2.87197 3 
11.4841 17.2252 2.87184 3 
8.61305 20.0961 2.87206 3 
11.4844 20.096 2.87199 3 
11.4838 17.225 0.00111158 3 
8.61255 20.0961 0.00126283 3 
8.61237 17.2252 0.00131289 3 
11.4842 20.0961 0.00102968 3 
12.9201 18.6605 1.43648 3 
15.7914 18.6604 1.43648 3 
14.3556 17.2249 2.87192 3 
14.3562 20.096 2.87228 3 
14.3556 20.096 0.000745702 3 
14.3553 17.2247 0.00078977 3 
18.6624 18.6601 1.43611 3 
17.2271 17.2242 2.87176 3 
20.0987 17.2239 2.87102 3 
17.2276 20.0959 2.87242 3 
20.0982 20.096 2.8715 3 
20.0977 17.2247 0.000141878 3 
20.0974 20.096 0.000122216 3 
17.2265 20.0959 0.000428676 3 
17.2265 17.2246 0.000458313 3 
21.5335 18.6603 1.43549 3 
24.4051 18.6605 1.43489 3 
22.9702 17.2245 2.87005 3 
22.9698 20.096 2.87033 3 
27.2767 18.6607 1.4348 3 
25.8419 17.2249 2.86958 3 
25.8417 20.0961 2.86974 3 
1.43559 21.5315 1.43542 3 
1.43561 24.4024 1.43537 3 
2.8712 22.9669 2.87127 3 
0.000804889 22.9671 2.87023 3 
2.87044 22.9669 0.000460457 3 
4.30615 24.4023 1.43617 3 
4.30626 21.5315 1.43623 3 
7.17721 21.5315 1.4366 3 
5.74192 22.9669 2.87193 3 
7.177 24.4023 1.43653 3 
5.74122 22.9669 0.00111844 3 
10.0485 21.5315 1.43651 3 
8.61291 22.9669 2.87197 3 
11.4841 22.9669 2.87178 3 
10.0482 24.4024 1.4364 3 
8.6124 22.967 0.00127286 3 
11.4839 22.9671 0.00105428 3 
12.9201 21.5314 1.43645 3 
15.7915 21.5315 1.43643 3 
14.3557 22.9671 2.87182 3 
12.9196 24.4027 1.43621 3 
15.791 24.403 1.43597 3 
14.3553 22.9672 0.000723627 3 
18.6624 21.5317 1.43609 3 
18.6625 24.4033 1.43558 3 
17.2272 22.9677 2.87167 3 
20.0987 22.9681 2.87096 3 
20.0977 22.9672 9.73015e-05 3 
17.2265 22.9673 0.000394051 3 
21.5335 21.5317 1.43545 3 
24.4051 21.5316 1.43488 3 
21.5341 24.4033 1.43504 3 
22.9702 22.9676 2.87001 3 
24.4056 24.4029 1.43463 3 
27.2767 21.5316 1.43479 3 
27.2769 24.4027 1.43468 3 
25.8419 22.9673 2.8696 3 
0.00131918 28.7101 2.86957 3 
2.87125 28.7093 2.87074 3 
1.43573 27.2736 1.43521 3 
2.8712 25.838 2.87104 3 
0.0010212 25.8384 2.86995 3 
2.87041 25.8379 0.000496398 3 
2.87042 28.7091 0.000518718 3 
5.74146 28.7092 2.87137 3 
4.30604 27.2734 1.43607 3 
7.17663 27.2735 1.43643 3 
5.74172 25.8378 2.87168 3 
5.74073 28.7093 0.0012653 3 
5.74099 25.8379 0.00118236 3 
8.61191 28.7096 2.87129 3 
11.4829 28.7101 0.00131854 3 
11.4828 28.7103 2.87073 3 
10.0476 27.274 1.43624 3 
8.61247 25.838 2.87163 3 
11.4834 25.8384 2.87121 3 
11.4833 25.8385 0.00119282 3 
8.61146 28.7097 0.00154055 3 
8.61196 25.8382 0.00137735 3 
14.3543 28.7109 2.87013 3 
14.3547 28.7104 0.000890117 3 
12.9189 27.2744 1.43586 3 
15.7906 27.2747 1.43545 3 
14.3548 25.839 2.87079 3 
14.3549 25.8387 0.000806672 3 
20.0987 28.7118 2.86895 3 
17.2265 28.7104 0.000426358 3 
17.2263 28.7114 2.86956 3 
18.6625 27.275 1.43498 3 
17.2266 25.8396 2.87037 3 
20.0988 25.8401 2.86973 3 
20.0981 25.8388 2.98163e-05 3 
17.2265 25.8388 0.000413917 3 
22.9711 28.7119 2.86844 3 
21.5345 27.2751 1.43448 3 
22.9712 25.8401 2.86898 3 
24.4063 27.2748 1.43413 3 
25.843 28.7114 2.86849 3 
27.2773 27.2742 1.43445 3 
25.8424 25.8391 2.86911 3 
1.43673 1.43386 4.3052 3 
1.43696 1.43444 7.17637 3 
2.87161 2.86923 5.74107 3 
0.00206094 2.87027 5.74019 3 
4.30643 1.43315 4.30612 3 
7.1766 1.43329 4.3064 3 
4.30631 1.43366 7.17689 3 
7.17614 1.43414 7.17674 3 
5.74133 2.86908 5.74145 3 
10.047 1.43409 4.30594 3 
10.047 1.43486 7.17676 3 
8.61179 2.86942 5.74155 3 
11.4826 2.8701 5.74118 3 
12.9181 1.43496 4.30521 3 
15.79 1.43563 4.30454 3 
12.9178 1.43604 7.17597 3 
15.7898 1.43677 7.1752 3 
14.3541 2.87064 5.74068 3 
14.3532 0.00127745 5.73914 3 
18.6624 1.43613 4.30389 3 
18.6627 1.43742 7.17442 3 
17.2263 2.87104 5.74015 3 
20.0988 2.87141 5.73959 3 
17.2258 0.00230938 5.73813 3 
20.0994 0.00321503 5.73713 3 
21.5352 1.4365 4.30322 3 
24.4078 1.43648 4.30297 3 
21.5362 1.43813 7.17363 3 
24.4094 1.43832 7.17349 3 
22.9715 2.87167 5.73911 3 
22.9735 0.00373384 5.73634 3 
27.2792 1.43549 4.30367 3 
27.2799 1.43653 7.17501 3 
25.8436 2.87142 5.73921 3 
25.8459 0.00261475 5.73704 3 
1.43661 4.30475 4.30524 3 
1.43662 7.17527 4.3052 3 
1.43677 4.30503 7.17643 3 
1.43676 7.17516 7.1764 3 
2.87155 5.74003 5.74103 3 
0.00168347 5.74007 5.74044 3 
7.17652 4.30449 4.30636 3 
4.30637 4.30444 4.30596 3 
4.30634 7.17554 4.30593 3 
7.17649 7.17546 4.30634 3 
4.30629 7.17541 7.17673 3 
4.30633 4.30472 7.17676 3 
7.1764 4.30482 7.17693 3 
5.74136 5.74002 5.74141 3 
7.17635 7.17523 7.1769 3 
10.0472 4.30477 4.30625 3 
10.0472 7.1752 4.30627 3 
10.0473 4.30504 7.17708 3 
8.61184 5.73999 5.74166 3 
10.0472 7.17498 7.17711 3 
11.4829 5.74001 5.74154 3 
15.7903 4.30527 4.30549 3 
12.9185 4.30505 4.30591 3 
12.9185 7.17496 4.30595 3 
15.7903 7.17482 4.30553 3 
12.9186 4.30529 7.17694 3 
15.7905 4.30546 7.17667 3 
12.9186 7.17475 7.17698 3 
14.3545 5.74003 5.74129 3 
15.7904 7.17464 7.17671 3 
18.6624 4.30546 4.30502 3 
18.6624 7.17469 4.30505 3 
18.6626 4.30564 7.17627 3 
17.2264 5.74007 5.74093 3 
18.6626 7.17454 7.17631 3 
20.0986 5.74011 5.7405 3 
21.5347 4.30559 4.30453 3 
24.4068 4.3056 4.30425 3 
21.5347 7.17459 4.30454 3 
24.4069 7.17458 4.30422 3 
21.535 4.30584 7.17583 3 
21.535 7.17437 7.17584 3 
22.9709 5.74012 5.74007 3 
24.4073 7.17428 7.17558 3 
24.4073 4.30595 7.17559 3 
27.2783 4.30531 4.30445 3 
27.2784 7.17481 4.3044 3 
27.2787 4.30564 7.17592 3 
25.8428 5.74012 5.73999 3 
27.2787 7.1746 7.17587 3 
1.43677 10.0463 4.30509 3 
1.43698 10.0458 7.1763 3 
2.87157 8.61087 5.74099 3 
2.87158 11.4823 5.74121 3 
0.00249565 11.4807 5.7397 3 
0.00209601 8.6099 5.74012 3 
4.30638 10.0469 4.30604 3 
7.1765 10.0467 4.30638 3 
4.30622 10.0464 7.17683 3 
5.74126 8.61096 5.7414 3 
7.17599 10.0459 7.17673 3 
5.74134 11.4824 5.74167 3 
10.0469 10.0459 4.30599 3 
8.61169 8.61057 5.74156 3 
10.0468 10.0451 7.17678 3 
11.4825 8.60991 5.74122 3 
8.61165 11.4818 5.74164 3 
11.4817 11.4802 5.74048 3 
12.918 10.0451 4.3053 3 
15.7899 10.0445 4.30461 3 
12.9176 10.044 7.17602 3 
14.3541 8.60945 5.74076 3 
15.7897 10.0433 7.1753 3 
14.353 11.4788 5.73925 3 
18.6623 10.044 4.30394 3 
17.2262 8.6091 5.74022 3 
18.6626 10.0427 7.17449 3 
20.0987 8.60876 5.73963 3 
17.2256 11.4778 5.73823 3 
20.0993 11.4769 5.73719 3 
21.5352 10.0436 4.30328 3 
24.4079 10.0437 4.30292 3 
21.5362 10.042 7.17363 3 
22.9715 8.60852 5.7391 3 
22.9735 11.4764 5.73631 3 
24.4095 10.0419 7.17343 3 
27.2793 10.0447 4.30357 3 
25.8437 8.60876 5.73915 3 
27.28 10.0437 7.17493 3 
25.8459 11.4776 5.73695 3 
1.43657 12.918 4.30549 3 
1.43636 15.7895 4.30599 3 
1.43684 12.9172 7.17652 3 
1.43639 15.7891 7.17732 3 
2.87146 14.3539 5.74182 3 
0.00194332 14.353 5.74041 3 
4.30647 12.9185 4.30646 3 
4.30658 15.7898 4.30694 3 
7.17684 12.9184 4.3068 3 
7.17732 15.7899 4.30734 3 
4.3063 12.918 7.17733 3 
7.17621 12.9176 7.17718 3 
4.30645 15.7896 7.17811 3 
5.74166 14.3541 5.74232 3 
7.17696 15.7895 7.17812 3 
10.0471 12.9176 4.30629 3 
10.048 15.7896 4.30707 3 
10.0468 12.9164 7.17692 3 
8.61234 14.3537 5.74242 3 
10.0482 15.789 7.17835 3 
11.4822 14.3524 5.74119 3 
12.9179 12.9165 4.30535 3 
15.7897 12.9155 4.30458 3 
12.919 15.789 4.30656 3 
15.7907 15.788 4.30625 3 
12.9158 12.9133 7.17422 3 
15.7877 12.9109 7.17203 3 
12.9169 15.7868 7.1757 3 
14.353 14.3506 5.73961 3 
15.7884 15.7839 7.17326 3 
18.6625 12.9147 4.30377 3 
18.6632 15.7869 4.30558 3 
18.6625 12.9091 7.17024 3 
17.2259 14.349 5.7385 3 
18.6647 15.7808 7.17133 3 
20.1007 14.3477 5.73698 3 
21.536 12.9142 4.30277 3 
21.5363 15.7866 4.30419 3 
24.409 12.9145 4.30229 3 
24.4077 15.7882 4.3038 3 
21.5394 12.9074 7.16826 3 
24.4147 12.9081 7.1683 3 
21.5439 15.7792 7.16777 3 
22.9757 14.3475 5.73546 3 
24.4116 15.7863 7.17145 3 
27.2791 12.9167 4.30382 3 
27.2785 15.789 4.30453 3 
27.2807 12.9145 7.17393 3 
25.8451 14.3512 5.73785 3 
27.2793 15.7881 7.17527 3 
1.43625 18.6607 4.30632 3 
1.43616 18.6605 7.17788 3 
2.8714 17.2252 5.74237 3 
2.87139 20.0961 5.7426 3 
0.00133719 20.0961 5.74137 3 
0.00148918 17.2248 5.74109 3 
4.30664 18.6608 4.30721 3 
7.17763 18.6608 4.30768 3 
4.30657 18.6607 7.17859 3 
5.74197 17.2253 5.74291 3 
7.17747 18.6607 7.17877 3 
5.74209 20.0961 5.74313 3 
10.0486 18.6607 4.30755 3 
8.61311 17.2253 5.74326 3 
10.0493 18.6606 7.1795 3 
11.4837 17.2249 5.74262 3 
8.61345 20.0961 5.74355 3 
11.4843 20.096 5.74312 3 
12.9201 18.6606 4.30751 3 
15.7923 18.6603 4.30809 3 
12.9193 18.6604 7.17813 3 
14.3551 17.2243 5.74212 3 
15.7926 18.6596 7.17826 3 
14.3564 20.096 5.74332 3 
18.6637 18.6593 4.30756 3 
17.2278 17.2225 5.74187 3 
18.6674 18.6556 7.17772 3 
20.1016 17.2211 5.74013 3 
17.2298 20.096 5.74442 3 
20.0994 20.096 5.74244 3 
21.5347 18.66 4.30589 3 
24.4069 18.6603 4.3045 3 
21.5369 18.6603 7.17511 3 
22.9728 17.2238 5.73885 3 
24.4101 18.6601 7.17303 3 
22.9719 20.096 5.73957 3 
27.2781 18.6605 4.30493 3 
25.8441 17.2243 5.73899 3 
27.2786 18.6603 7.17615 3 
25.8438 20.0961 5.73933 3 
1.43623 21.5316 4.30638 3 
1.43632 24.4027 4.30608 3 
1.43616 21.5316 7.17792 3 
2.8714 22.967 5.74245 3 
1.43637 24.403 7.17738 3 
0.00145722 22.9674 5.74118 3 
4.30666 21.5315 4.30726 3 
7.17767 21.5315 4.30769 3 
7.17743 24.4023 4.30739 3 
4.30661 24.4024 4.30702 3 
4.3066 21.5315 7.17863 3 
7.17753 21.5315 7.17875 3 
4.30651 24.4026 7.17816 3 
5.74202 22.9669 5.74294 3 
7.17713 24.4026 7.17815 3 
10.0487 21.5314 4.30752 3 
10.0482 24.4026 4.30704 3 
10.0494 21.5315 7.17948 3 
8.61326 22.9669 5.74325 3 
10.0484 24.4031 7.17832 3 
11.4838 22.9671 5.74258 3 
12.9201 21.5314 4.30747 3 
15.7923 21.5316 4.30802 3 
15.7908 24.404 4.30612 3 
12.9192 24.403 4.30647 3 
12.9194 21.5317 7.17811 3 
15.7927 21.5324 7.17821 3 
14.3552 22.9677 5.74204 3 
15.7886 24.4081 7.1732 3 
12.9171 24.4052 7.17565 3 
18.6637 21.5326 4.30753 3 
18.6633 24.4051 4.30548 3 
18.6674 21.5364 7.17772 3 
17.2278 22.9695 5.74179 3 
18.6647 24.4112 7.17129 3 
20.1016 22.971 5.7401 3 
21.5348 21.5321 4.30589 3 
24.4069 21.5318 4.30452 3 
21.5363 24.4054 4.30416 3 
24.4077 24.4039 4.30385 3 
21.5369 21.5317 7.1751 3 
21.5438 24.4129 7.16778 3 
22.9728 22.9683 5.73887 3 
24.4101 21.532 7.17303 3 
24.4116 24.4058 7.17151 3 
27.2781 21.5317 4.30496 3 
27.2784 24.4032 4.30461 3 
27.2786 21.5318 7.17618 3 
25.8441 22.9679 5.73902 3 
27.2792 24.404 7.17536 3 
0.002452 28.7114 5.73983 3 
1.43654 27.2742 4.30561 3 
2.87159 28.7099 5.74132 3 
1.43682 27.2749 7.1766 3 
2.87148 25.8383 5.74191 3 
0.00186859 25.8392 5.74051 3 
4.30651 27.2736 4.30655 3 
7.17698 27.2737 4.30682 3 
5.74144 28.7097 5.74173 3 
4.30639 27.2741 7.1774 3 
5.74176 25.8381 5.74238 3 
7.17642 27.2745 7.17718 3 
8.61184 28.7103 5.74162 3 
10.0474 27.2744 4.30623 3 
11.4819 28.7118 5.74041 3 
8.61254 25.8384 5.74242 3 
10.0471 27.2756 7.17692 3 
11.4825 25.8396 5.74113 3 
12.9181 27.2755 4.30523 3 
15.7899 27.2765 4.30443 3 
12.916 27.2788 7.17414 3 
14.3532 25.8414 5.73952 3 
15.7879 27.2811 7.17192 3 
18.6626 27.2773 4.30367 3 
17.226 25.843 5.73839 3 
18.6626 27.2829 7.17018 3 
20.1007 25.8444 5.73694 3 
21.536 27.2779 4.30274 3 
24.4089 27.2776 4.30234 3 
21.5394 27.2846 7.16828 3 
22.9757 25.8446 5.7355 3 
24.4146 27.284 7.16838 3 
27.279 27.2755 4.30393 3 
25.8451 25.8409 5.73792 3 
27.2806 27.2777 7.17401 3 
2.87146 2.86957 8.61241 3 
0.0021093 2.87056 8.61203 3 
1.43672 1.43464 10.0483 3 
2.87105 2.86972 11.4843 3 
0.0017639 2.87055 11.4844 3 
0.00252359 4.33674e-05 8.61169 3 
5.74097 2.8696 8.6124 3 
4.30589 1.43411 10.0483 3 
7.17535 1.43504 10.0479 3 
5.74041 2.87 11.4841 3 
8.61135 2.87012 8.61236 3 
11.4827 2.87052 8.61255 3 
11.4822 0.000877028 8.61198 3 
8.60932 0.00134849 11.483 3 
11.4806 0.00273425 11.4827 3 
10.0461 1.43607 10.0476 3 
8.61078 2.87067 11.4839 3 
11.4824 2.87087 11.4842 3 
14.3544 2.87087 8.6123 3 
12.9183 1.43633 10.0481 3 
15.7903 1.43655 10.0476 3 
14.3546 2.87067 11.4845 3 
14.3528 0.00271486 8.61043 3 
14.3541 0.00224573 11.484 3 
17.2265 2.87105 8.61189 3 
20.0992 2.87143 8.61134 3 
20.1006 0.00496154 8.60782 3 
20.1015 0.00325931 11.4815 3 
18.6632 1.43679 10.0469 3 
17.2268 2.87047 11.4842 3 
20.0992 2.87077 11.4838 3 
17.2259 0.00361973 8.6092 3 
17.2268 0.00204609 11.4827 3 
22.972 2.87193 8.61098 3 
22.976 0.00627228 8.60702 3 
22.9752 0.00502308 11.4824 3 
21.5368 1.43785 10.0462 3 
24.4094 1.43822 10.0468 3 
22.9717 2.87148 11.4838 3 
25.8439 2.87171 8.61136 3 
27.2798 1.43663 10.0477 3 
25.8435 2.87152 11.4842 3 
25.8466 0.00382387 8.60948 3 
25.8459 0.00337211 11.4836 3 
2.87143 5.7401 8.61238 3 
1.43656 4.30514 10.0483 3 
1.43655 7.17509 10.0483 3 
2.87105 5.74008 11.4843 3 
0.00138561 5.74013 11.4844 3 
0.00169212 5.74013 8.6122 3 
5.74112 5.74006 8.61246 3 
4.306 4.3049 10.0482 3 
4.30594 7.17524 10.0483 3 
7.17599 4.30509 10.0482 3 
7.17594 7.17497 10.0482 3 
5.74067 5.74005 11.4842 3 
8.61165 5.74002 8.61267 3 
11.483 5.74 8.61288 3 
10.0471 4.30528 10.0484 3 
10.047 7.17471 10.0484 3 
8.61131 5.74 11.4842 3 
11.4829 5.74 11.4846 3 
14.3547 5.74003 8.61284 3 
15.7907 4.30534 10.0486 3 
12.9188 4.30533 10.0487 3 
12.9187 7.17471 10.0487 3 
15.7906 7.17478 10.0486 3 
14.3547 5.74004 11.4847 3 
17.2266 5.74008 8.6126 3 
20.0988 5.7401 8.61224 3 
18.6628 4.3054 10.0483 3 
18.6627 7.17478 10.0483 3 
17.2267 5.74009 11.4846 3 
20.0987 5.74009 11.4843 3 
22.9711 5.74012 8.61192 3 
21.5351 4.30563 10.0479 3 
21.5351 7.17456 10.0479 3 
22.9708 5.7401 11.4842 3 
24.4072 7.17436 10.0479 3 
24.4072 4.30587 10.0479 3 
25.8429 5.74014 8.61194 3 
27.2785 4.30565 10.0481 3 
27.2785 7.17458 10.0482 3 
25.8426 5.74013 11.4843 3 
2.87142 8.61061 8.61239 3 
2.87138 11.4818 8.61261 3 
0.00256164 11.4801 8.61166 3 
1.4367 10.0455 10.0483 3 
2.87103 8.61042 11.4844 3 
2.87098 11.4815 11.4845 3 
0.0020419 11.4802 11.4843 3 
0.00211764 8.60966 8.61201 3 
0.00176778 8.60967 11.4844 3 
5.74088 8.6105 8.61239 3 
5.74075 11.4817 8.61255 3 
4.30579 10.046 10.0483 3 
7.17522 10.045 10.0479 3 
5.74036 8.61006 11.4841 3 
5.74015 11.481 11.4841 3 
8.61123 8.60991 8.61238 3 
11.4826 8.60951 8.6126 3 
8.61039 11.4802 8.6117 3 
11.4819 11.4792 8.612 3 
10.0459 10.044 10.0476 3 
8.61068 8.60935 11.484 3 
11.4823 8.60916 11.4842 3 
8.60912 11.4787 11.483 3 
11.4803 11.4773 11.4827 3 
14.3542 8.6092 8.61236 3 
14.3526 11.4774 8.6105 3 
12.9181 10.0437 10.0482 3 
15.7901 10.0436 10.0476 3 
14.3545 8.60944 11.4845 3 
14.3539 11.4778 11.484 3 
17.2265 8.60908 8.61195 3 
20.0991 8.60874 8.61137 3 
17.2258 11.4765 8.60928 3 
20.1006 11.4752 8.60782 3 
18.6631 10.0434 10.0469 3 
17.2267 8.60972 11.4842 3 
20.0992 8.60944 11.4838 3 
17.2266 11.4781 11.4827 3 
20.1014 11.4769 11.4815 3 
22.972 8.60827 8.61096 3 
22.976 11.4739 8.60697 3 
21.5368 10.0423 10.0462 3 
22.9717 8.60872 11.4838 3 
22.9752 11.4751 11.4824 3 
24.4094 10.042 10.0468 3 
25.8439 8.6085 8.61136 3 
25.8467 11.4763 8.60943 3 
27.2798 10.0436 10.0477 3 
25.8435 8.60869 11.4842 3 
25.8459 11.4768 11.4836 3 
2.87128 14.3534 8.61319 3 
0.0020435 14.352 8.61171 3 
1.43648 12.9169 10.0484 3 
1.43595 15.7886 10.0489 3 
2.87089 14.3531 11.4849 3 
0.00127065 14.3518 11.4842 3 
5.7412 14.3536 8.61331 3 
4.30591 12.9175 10.0488 3 
7.17522 12.9164 10.048 3 
4.30624 15.7892 10.0496 3 
7.1764 15.7889 10.0492 3 
5.74081 14.3529 11.4847 3 
8.61103 14.3524 8.61239 3 
11.4824 14.3509 8.61257 3 
10.0441 12.9132 10.0459 3 
10.0455 15.7868 10.0471 3 
8.60946 14.3506 11.4832 3 
11.4758 14.3439 11.4782 3 
14.348 14.3439 8.60591 3 
12.9174 12.9127 10.0476 3 
15.7877 12.9097 10.0444 3 
12.9196 15.7857 10.0497 3 
15.776 15.7684 10.0317 3 
14.3545 14.3458 11.4846 3 
17.2227 14.3397 8.60167 3 
20.1046 14.3354 8.59754 3 
18.664 12.9082 10.0422 3 
18.6638 15.7571 10.0225 3 
17.2241 14.3417 11.4763 3 
20.1114 14.3362 11.4715 3 
22.9883 14.3335 8.59474 3 
21.5434 12.9047 10.0396 3 
21.5744 15.7453 10.0085 3 
22.9855 14.3354 11.4783 3 
24.4148 12.9074 10.0436 3 
24.4153 15.7791 10.0391 3 
25.8476 14.3474 8.60725 3 
27.2803 12.914 10.0469 3 
27.2789 15.7865 10.0467 3 
25.8461 14.3475 11.4823 3 
2.87117 17.225 8.61393 3 
2.87115 20.0961 8.61426 3 
0.00106138 17.2244 8.6128 3 
0.000745942 20.096 8.61329 3 
1.43555 18.6603 10.0496 3 
2.87084 17.2246 11.4854 3 
2.87082 20.096 11.4857 3 
4.63869e-05 17.2238 11.4843 3 
5.74175 17.2251 8.6142 3 
5.74199 20.0961 8.61456 3 
4.30649 18.6605 10.0502 3 
7.17739 18.6606 10.0503 3 
5.74181 17.2248 11.4858 3 
5.74225 20.096 11.4864 3 
8.61244 17.2249 8.61387 3 
11.485 17.2245 8.61519 3 
8.61302 20.0961 8.61442 3 
11.4863 20.096 8.6164 3 
10.048 18.6604 10.0495 3 
8.61195 17.2243 11.4853 3 
11.4788 17.2202 11.4807 3 
8.61325 20.096 11.4866 3 
11.4826 20.096 11.4847 3 
14.3506 17.2202 8.60894 3 
14.3546 20.096 8.61266 3 
12.9245 18.6608 10.0545 3 
15.7812 18.6508 10.0379 3 
14.3627 17.2228 11.4927 3 
14.3724 20.0959 11.5024 3 
17.2268 17.2151 8.60559 3 
20.1136 17.2082 8.60016 3 
17.2359 20.096 8.61245 3 
20.0984 20.096 8.6158 3 
18.6849 18.6293 10.0389 3 
17.1943 17.1793 11.4347 3 
20.196 17.1209 11.3869 3 
17.2312 20.0959 11.3821 5 
20.0469 20.0959 11.5361 5 
22.9778 17.2242 8.60525 3 
22.9766 20.096 8.60645 3 
21.5393 18.6706 10.0437 3 
22.9828 17.2081 11.4693 3 
22.9672 20.0959 11.4846 3 
24.408 18.6603 10.0461 3 
28.7115 20.0959 11.4848 3 
25.8443 17.2237 8.61025 3 
25.8436 20.096 8.61119 3 
27.2772 18.6599 10.0483 3 
25.8429 17.2209 11.4814 3 
25.8406 20.0959 11.4836 3 
2.87119 22.9672 8.61397 3 
1.43593 24.4034 10.0489 3 
1.10526e-05 22.9682 11.4843 3 
1.43554 21.5317 10.0496 3 
2.87083 22.9673 11.4854 3 
0.00102726 22.9677 8.61283 3 
5.74186 22.967 8.61421 3 
4.30632 24.4028 10.0495 3 
7.1766 24.4032 10.0492 3 
4.30652 21.5315 10.0502 3 
7.17747 21.5315 10.0503 3 
5.7419 22.9672 11.4858 3 
8.6126 22.9672 8.61384 3 
11.4851 22.9676 8.61515 3 
10.0458 24.4053 10.0471 3 
10.0481 21.5317 10.0495 3 
8.61212 22.9678 11.4853 3 
11.479 22.9718 11.4807 3 
14.3507 22.9718 8.60893 3 
12.9245 21.5312 10.0545 3 
15.7812 21.5411 10.0379 3 
12.9198 24.4063 10.0497 3 
15.7761 24.4236 10.0317 3 
14.3628 22.9692 11.4927 3 
17.2269 22.9768 8.60558 3 
20.1137 22.9839 8.60018 3 
18.6849 21.5626 10.039 3 
18.6638 24.4349 10.0225 3 
20.196 23.071 11.3869 3 
17.1943 23.0126 11.4346 3 
22.9778 22.9678 8.60526 3 
22.9828 22.9839 11.4693 3 
21.5392 21.5213 10.0437 3 
24.4152 24.4129 10.0392 3 
21.5744 24.4467 10.0085 3 
24.4079 21.5317 10.0462 3 
25.8442 22.9683 8.61029 3 
25.8429 22.971 11.4814 3 
27.2789 24.4055 10.0467 3 
27.2772 21.5321 10.0483 3 
2.87142 28.7104 8.61263 3 
2.87099 28.7106 11.4844 3 
0.00201783 28.712 11.4843 3 
2.87131 25.8387 8.61321 3 
0.0020045 25.8402 8.61177 3 
2.87091 25.8389 11.4848 3 
1.43648 27.2753 10.0484 3 
0.00122696 25.8403 11.4841 3 
5.7409 28.7104 8.61254 3 
5.74136 25.8386 8.61331 3 
4.306 27.2746 10.0487 3 
7.17541 27.2757 10.048 3 
5.74093 25.8392 11.4846 3 
5.74026 28.7111 11.4841 3 
8.61061 28.7119 8.61171 3 
8.61128 25.8397 8.61238 3 
11.4827 25.8411 8.61253 3 
10.0443 27.2788 10.0459 3 
8.60969 25.8415 11.4831 3 
11.476 25.8481 11.4782 3 
14.3483 25.8481 8.60587 3 
12.9177 27.2794 10.0476 3 
15.7879 27.2824 10.0443 3 
14.3547 25.8462 11.4846 3 
17.2228 25.8523 8.60163 3 
20.1046 25.8566 8.59757 3 
20.1114 25.8559 11.4715 3 
18.6641 27.2839 10.0422 3 
17.2242 25.8503 11.4763 3 
22.9882 25.8586 8.59481 3 
22.9854 25.8566 11.4784 3 
24.4147 27.2847 10.0436 3 
21.5433 27.2874 10.0397 3 
25.8475 25.8447 8.60732 3 
25.8461 25.8445 11.4822 3 
27.2803 27.2781 10.047 3 
1.43625 1.4346 12.9205 3 
2.87053 2.86972 14.3564 3 
0.00126107 2.87034 14.3567 3 
1.4357 1.43436 15.7926 3 
4.30534 1.43439 12.9202 3 
7.17464 1.43569 12.9198 3 
5.73986 2.87024 14.3561 3 
4.30482 1.43448 15.7923 3 
7.17393 1.43612 15.7923 3 
10.0453 1.43681 12.9197 3 
11.4819 2.87103 14.3565 3 
8.61021 2.87104 14.3561 3 
8.60826 0.00234967 14.3556 3 
10.0445 1.43739 15.7926 3 
11.4793 0.00361676 14.3558 3 
12.9177 1.43653 12.9202 3 
15.7905 1.43577 12.9205 3 
14.3542 2.87042 14.3568 3 
12.9169 1.43673 15.7931 3 
15.7898 1.43556 15.7932 3 
14.3528 0.00200925 14.3567 3 
18.6632 1.4356 12.9198 3 
18.6624 1.4358 15.7924 3 
20.1002 0.00207889 14.3562 3 
17.2265 0.00078285 14.3565 3 
20.0987 2.87051 14.3562 3 
17.2264 2.87013 14.3565 3 
21.5361 1.43687 12.9198 3 
24.4086 1.43755 12.9204 3 
21.5353 1.43663 15.7927 3 
24.4077 1.4369 15.7932 3 
22.9737 0.00371045 14.3571 3 
22.9711 2.87115 14.3565 3 
25.8448 0.00245456 14.3572 3 
27.2792 1.43631 12.9206 3 
25.8429 2.87117 14.3568 3 
27.2784 1.43576 15.793 3 
1.43612 4.30511 12.9204 3 
1.43613 7.17506 12.9205 3 
2.87056 5.74002 14.3565 3 
0.000922113 5.74008 14.3566 3 
1.43561 4.30498 15.7926 3 
1.43562 7.17507 15.7927 3 
4.3055 4.30499 12.9202 3 
7.1755 4.30529 12.9201 3 
4.30547 7.17507 12.9203 3 
7.17547 7.17471 12.9201 3 
5.74018 5.73999 14.3562 3 
7.175 4.30537 15.7923 3 
4.30499 4.30499 15.7924 3 
4.30499 7.17495 15.7924 3 
7.17497 7.1745 15.7924 3 
10.0467 4.30543 12.9203 3 
10.0466 7.17455 12.9203 3 
11.4825 5.73998 14.3566 3 
8.61088 5.73996 14.3563 3 
10.0462 4.30554 15.7926 3 
10.0462 7.17438 15.7925 3 
12.9186 4.30531 12.9206 3 
15.7906 4.30515 12.9206 3 
12.9185 7.17475 12.9206 3 
15.7905 7.17499 12.9206 3 
14.3545 5.74005 14.3567 3 
12.9182 4.30532 15.7928 3 
15.7902 4.30512 15.7927 3 
12.9181 7.17469 15.7928 3 
15.7902 7.17504 15.7926 3 
18.6626 4.30513 12.9204 3 
18.6626 7.17506 12.9203 3 
17.2264 5.7401 14.3565 3 
18.6622 4.30521 15.7923 3 
18.6622 7.17501 15.7923 3 
20.0984 5.74011 14.3563 3 
24.4068 4.30571 12.9204 3 
21.5348 4.30543 12.9202 3 
21.5347 7.17478 12.9202 3 
24.4068 7.17451 12.9204 3 
21.5343 4.30542 15.7923 3 
21.5343 7.1748 15.7923 3 
24.4063 7.17462 15.7926 3 
24.4064 4.30556 15.7926 3 
22.9704 5.7401 14.3564 3 
27.2781 4.30555 12.9205 3 
27.2781 7.17466 12.9206 3 
27.2776 4.30537 15.7927 3 
27.2776 7.17477 15.7928 3 
25.8422 5.74011 14.3566 3 
1.43625 10.0455 12.9206 3 
0.00126027 8.6098 14.3568 3 
2.87057 8.61034 14.3565 3 
1.43575 10.0456 15.7927 3 
0.00143813 11.4805 14.3568 3 
2.87054 11.4814 14.3566 3 
4.30532 10.0457 12.9203 3 
7.17453 10.0443 12.9198 3 
4.30486 10.0455 15.7925 3 
7.17388 10.0438 15.7924 3 
5.73961 11.4804 14.3563 3 
5.73982 8.60975 14.3562 3 
10.0451 10.0432 12.9197 3 
8.6081 11.4776 14.3557 3 
10.0443 10.0425 15.7926 3 
11.4791 11.4764 14.3558 3 
11.4818 8.60899 14.3564 3 
8.61009 8.60892 14.3561 3 
12.9175 10.0435 12.9202 3 
15.7904 10.0444 12.9205 3 
12.9167 10.0433 15.7932 3 
15.7896 10.0445 15.7932 3 
14.3526 11.4781 14.3567 3 
14.3541 8.60967 14.3567 3 
18.6631 10.0446 12.9197 3 
17.2264 8.61004 14.3565 3 
20.0987 8.6097 14.3562 3 
20.1002 11.478 14.3562 3 
18.6623 10.0443 15.7924 3 
17.2264 11.4793 14.3565 3 
21.5361 10.0433 12.9198 3 
24.4086 10.0426 12.9204 3 
22.9711 8.60903 14.3565 3 
21.5353 10.0435 15.7927 3 
24.4078 10.0432 15.7933 3 
22.9737 11.4764 14.3571 3 
27.2792 10.0439 12.9206 3 
27.2785 10.0443 15.7932 3 
25.8429 8.60899 14.3568 3 
25.8449 11.4776 14.3573 3 
1.43597 12.9169 12.9206 3 
1.43535 15.7885 12.9207 3 
1.4355 12.9171 15.7927 3 
1.43493 15.7887 15.7922 3 
0.000568988 14.3522 14.3566 3 
2.87051 14.353 14.3566 3 
4.30552 12.9171 12.9206 3 
7.17444 12.9154 12.9198 3 
4.30602 15.7888 12.9211 3 
7.17608 15.7879 12.9209 3 
5.74042 14.3522 14.3567 3 
4.30509 12.9168 15.7926 3 
7.17368 12.9145 15.7927 3 
4.30562 15.7885 15.7926 3 
7.17546 15.7868 15.7934 3 
10.0419 12.9109 12.9178 3 
10.0431 15.7839 12.9186 3 
11.4715 14.3397 14.3528 3 
10.0401 12.909 15.7926 3 
10.0412 15.7807 15.7948 3 
8.60836 14.3489 14.3561 3 
12.9142 12.9097 12.9178 3 
15.7904 12.9122 12.9205 3 
12.9016 15.7684 12.9061 3 
15.7961 15.78 12.9261 3 
12.912 12.9081 15.7941 3 
15.7875 12.9114 15.7953 3 
12.8925 15.757 15.7938 3 
15.7804 15.7533 15.8025 3 
14.3462 14.3417 14.3541 3 
18.6652 12.9115 12.9176 3 
18.6724 15.7534 12.9105 3 
17.2264 14.3484 14.3564 3 
18.6624 12.9121 15.7924 3 
18.6568 15.7798 15.7868 3 
20.1066 14.3416 14.3588 3 
21.5408 12.9081 12.9189 3 
21.5604 15.757 12.9191 3 
24.4128 12.909 12.9204 3 
24.4117 15.7806 12.9183 3 
21.5386 12.9096 15.7951 3 
24.411 12.9108 15.7952 3 
21.5512 15.7683 15.8068 3 
24.4097 15.7837 15.7945 3 
22.9813 14.3396 14.3601 3 
27.2793 12.9145 12.9204 3 
27.2775 15.7867 12.9198 3 
27.2785 12.9153 15.7933 3 
27.2768 15.7878 15.7923 3 
25.8445 14.3489 14.357 3 
1.43484 18.6601 12.9207 3 
2.87046 17.2245 14.3567 3 
1.43442 18.6602 15.7916 3 
2.87043 20.0959 14.3566 3 
4.30646 18.6603 12.9216 3 
7.17796 18.6603 12.9225 3 
5.74167 17.2242 14.3573 3 
5.74236 20.096 14.3578 3 
4.30606 18.6601 15.7926 3 
7.17747 18.6593 15.7938 3 
10.0482 18.6596 12.9228 3 
8.61438 20.096 14.3599 3 
10.0477 18.6556 15.7975 3 
8.61173 17.2225 14.3579 3 
11.4755 17.2151 14.357 3 
11.4825 20.096 14.366 3 
12.9079 18.6508 12.9112 3 
15.8277 18.6735 12.9577 5 
14.2521 20.0959 14.3611 5 
12.909 18.6293 15.8149 3 
15.6404 18.2582 15.9427 5 
14.3047 17.1793 14.3243 3 
16.4773 20.0959 15.1056 5 
18.8125 18.2584 12.7704 5 
17.9756 20.0959 13.6074 5 
17.2265 17.2618 14.3565 5 
20.1483 17.1792 14.3886 3 
18.6253 18.6735 15.7552 5 
20.2009 20.0959 14.3517 5 
21.544 18.6292 12.898 3 
24.4053 18.6555 12.9156 3 
21.545 18.6507 15.8017 3 
24.4047 18.6594 15.7902 3 
22.9774 17.215 14.356 3 
22.9705 20.0959 14.3469 3 
28.7113 17.224 14.356 3 
27.2755 18.6592 12.9193 3 
25.8412 17.2223 14.3552 3 
28.7105 20.0959 14.3554 3 
27.2748 18.6601 15.7907 3 
25.8385 20.0959 14.3531 3 
1.43483 21.5318 12.9206 3 
1.43531 24.4034 12.9205 3 
2.87043 22.9674 14.3565 3 
1.43437 21.5315 15.7915 3 
1.43483 24.4031 15.792 3 
4.30648 21.5316 12.9215 3 
7.17802 21.5317 12.9224 3 
4.30604 24.4031 12.9209 3 
7.17623 24.4041 12.9208 3 
4.30605 21.5318 15.7924 3 
7.17748 21.5327 15.7938 3 