ITEM: TIMESTEP
18000
ITEM: NUMBER OF ATOMS
2001
ITEM: BOX BOUNDS pp pp pp
0.0000000000000000e+00 2.8712000000000000e+01
0.0000000000000000e+00 2.8712000000000000e+01
0.0000000000000000e+00 2.8712000000000000e+01
ITEM: ATOMS x y z 
1.54801 1.50242 1.30856 
2.92811 2.86915 2.66478 
0.023158 0.144562 2.91376 
2.93948 0.0708475 2.78804 
0.0369178 2.90163 2.84788 
4.19269 1.37204 1.32531 
7.09046 1.30378 1.38356 
5.65622 2.75115 2.63113 
5.66978 0.0302615 2.81355 
5.46116 2.8239 0.0447138 
9.94634 1.35415 1.48705 
8.44156 2.75501 2.8952 
11.3328 2.97573 2.83432 
8.62365 0.153388 2.75143 
11.5212 2.75624 0.170858 
11.4358 0.0444471 0.0046634 
12.8353 1.27554 1.66446 
15.6309 1.23445 1.48063 
14.177 2.65124 2.83629 
14.4175 2.80427 0.0452086 
12.8548 3.96189 1.51753 
18.7803 1.54287 1.31191 
17.1443 2.56614 3.01454 
20.3043 2.66454 2.87239 
20.3652 0.0911204 2.72869 
17.3516 2.67207 0.11746 
17.299 0.0270123 0.16463 
21.7692 1.46158 1.31199 
24.4702 1.37408 1.33251 
23.0858 2.85438 2.9595 
27.2854 1.70009 1.28735 
25.9517 2.74517 2.88805 
28.702 0.0595869 0.0309389 
25.7378 0.00606213 0.0498877 
1.4254 4.38045 1.25077 
1.40615 7.13869 1.21931 
2.89336 5.85842 2.75017 
0.0559532 5.79463 2.7538 
4.28213 4.15557 1.40447 
7.19992 4.32436 4.05422 
7.14485 4.11723 1.37181 
4.30815 6.98502 1.18336 
7.14642 6.85339 1.39284 
5.58647 5.80983 2.90752 
9.99995 4.1232 1.34624 
9.99958 7.1326 1.35491 
8.50389 5.78727 2.8669 
11.454 5.67424 2.84431 
11.4558 5.69435 0.195203 
15.8447 4.1467 1.48714 
13.0529 7.13999 1.48789 
15.7219 7.10202 1.41824 
14.1726 5.73573 2.7683 
18.7929 4.36617 1.32643 
18.6548 7.22337 1.36298 
17.2706 5.72801 2.60624 
20.1348 5.76755 2.75807 
20.1515 5.66211 0.0335007 
21.6678 4.29311 1.48004 
21.57 7.29795 1.5611 
21.5814 4.27736 3.99255 
22.9304 5.95508 2.86914 
24.4003 7.20248 1.27853 
24.4999 4.1652 1.53764 
28.5717 5.90701 0.0163054 
27.4167 4.1988 1.5376 
27.2337 7.35023 1.44927 
25.8246 5.59504 2.84838 
1.41563 10.0627 1.24109 
2.64484 8.44315 2.58922 
2.84581 11.3249 2.75706 
0.0386121 8.51874 2.7055 
0.111703 11.3222 2.67371 
4.30096 9.95737 1.13688 
7.10136 10.2258 1.39875 
5.72022 8.55694 2.52509 
5.82681 11.5013 2.75744 
10.1597 10.306 1.43291 
8.54343 8.61303 2.68407 
11.4968 8.70129 3.22315 
8.7435 11.5559 2.73022 
11.4199 11.5464 3.01671 
11.51 11.3735 0.0393514 
8.55843 11.4927 0.113493 
8.51129 8.49626 0.110415 
11.393 8.53933 0.251598 
12.9278 9.82163 1.48502 
15.8763 10.0191 1.53552 
14.4306 8.62367 3.00843 
14.3069 11.3397 2.97863 
14.4617 8.48451 0.0854967 
14.2969 11.3138 0.125226 
18.5894 9.96523 1.38665 
17.3996 8.50069 2.702 
20.0535 8.58931 2.96043 
17.0831 11.3664 2.86745 
20.052 11.6679 2.87145 
20.1016 11.5483 0.0153069 
20.1099 8.56685 0.0940943 
17.2997 11.6294 0.114351 
21.3948 10.0313 1.54215 
24.4747 10.3167 1.37192 
22.9168 8.76919 2.94642 
22.9922 11.5524 2.88205 
22.9811 8.81664 0.0855282 
27.217 10.1165 1.32914 
25.816 8.73498 2.69477 
26.0156 11.5386 2.77558 
1.35524 12.9983 1.41164 
1.46328 15.8987 1.35425 
1.48802 12.9894 4.08491 
2.94903 14.3663 2.93955 
0.127857 14.5143 2.81626 
0.0630898 14.3744 0.00805319 
3.10758 14.3989 0.141463 
4.36324 12.866 1.47349 
4.35223 12.8739 4.04249 
7.12708 12.9092 1.37998 
4.29872 15.8682 1.49233 
7.01957 15.8102 1.24792 
5.88464 14.2709 2.74296 
5.83579 14.2427 0.0254479 
10.1937 12.9176 1.35803 
9.96197 15.6687 1.47155 
8.61573 14.3791 2.80068 
11.5218 14.3834 2.80654 
12.893 12.7924 1.38539 
15.664 13.0574 1.63051 
12.7787 15.9315 1.68822 
15.7353 15.7191 1.44684 
14.157 14.3473 2.64253 
14.2236 14.5222 0.166705 
18.6574 13.0388 1.55641 
18.5324 15.6768 1.51748 
16.9504 14.3401 3.01619 
20.1841 14.2252 2.89017 
20.2368 14.2599 0.0313137 
17.2439 14.2953 0.135697 
21.4619 12.769 1.42436 
24.4341 12.9801 1.28033 
21.6155 15.8881 1.46959 
22.9169 14.0687 2.90059 
24.2895 15.8427 1.43954 
22.9821 14.2831 0.216103 
27.2681 12.974 1.29775 
27.2191 15.8253 1.27495 
27.5125 12.7445 4.07311 
25.8257 14.4204 2.85286 
1.34604 18.6689 1.38773 
2.97769 17.1938 2.9998 
2.78226 20.161 2.8777 
2.85765 17.2284 0.123186 
4.19242 18.6621 1.43115 
7.22084 18.6533 1.41339 
5.87597 17.3793 2.92101 
5.69213 20.0296 2.79218 
10.14 18.7168 1.55866 
8.43581 17.1661 2.9064 
11.5396 17.2886 2.92546 
8.61124 20.1146 2.89713 
11.4111 20.1941 2.81715 
11.5291 17.0056 0.0181978 
8.59248 19.9801 0.294162 
8.88176 16.9272 0.0724852 
12.931 18.4648 1.31344 
15.683 18.4887 1.48453 
14.2732 17.2964 2.83209 
14.243 19.9808 2.7534 
14.2893 19.8115 0.0153667 
18.7796 18.6488 1.70812 
17.3415 17.1607 2.95489 
20.2185 17.1734 2.99099 
17.1513 20.0156 3.00034 
20.266 20.1809 3.11865 
20.1378 17.1059 0.179427 
20.0213 20.0344 0.170206 
17.3252 19.9148 0.454443 
21.5289 18.8155 1.53026 
24.4285 18.6386 1.40883 
22.8887 17.1705 2.84526 
23.0715 20.0568 2.92437 
22.8649 17.4089 0.0459544 
22.9518 20.036 0.0114617 
28.6292 17.1826 2.82881 
28.6726 20.0498 2.97876 
27.2029 18.7753 1.47483 
25.6946 17.3266 2.98682 
25.8005 19.9562 2.91507 
28.5357 20.0952 0.0196311 
25.8672 17.2582 0.0759118 
25.783 19.852 0.0138182 
1.30872 21.5041 1.42405 
1.26406 24.3695 1.10101 
2.75698 23.1092 2.82919 
4.12292 24.3931 1.45978 
4.2802 21.5382 1.68995 
7.0005 21.6563 1.49533 
5.60976 23.1586 2.97896 
6.89554 24.4132 1.34767 
10.0626 21.4913 1.41829 
8.62794 23.1381 3.02171 
11.4321 23.008 2.78153 
9.89256 24.5763 1.36873 
8.53088 22.9817 0.103519 
12.8012 21.4802 1.31471 
15.8236 21.4867 1.37617 
14.3239 22.8643 2.84244 
12.8889 24.3107 1.43669 
15.691 24.5239 1.47188 
18.7757 21.4537 1.74001 
18.7174 24.3713 1.75816 
17.0771 22.9795 2.87465 
20.2698 22.9961 3.15695 
20.037 23.0606 0.151273 
17.2382 22.9664 0.246425 
21.3949 21.3817 1.4991 
24.4226 21.5314 1.5406 
21.449 24.4289 1.91566 
22.9174 22.9246 3.1197 
24.3424 24.3669 1.50817 
22.6629 23.0147 0.362248 
28.5604 22.916 2.92562 
27.3165 21.4027 1.48835 
27.331 24.3022 1.41836 
25.7247 22.8775 2.92612 
1.3001 27.3361 1.40002 
2.81104 25.7541 2.75885 
4.1106 27.3845 1.38457 
7.22193 27.1205 1.45455 
5.46244 25.8285 2.82917 
11.3405 28.6615 3.03762 
10.0346 27.3949 1.27857 
8.63155 25.9818 2.77964 
11.3731 25.885 2.82022 
11.5276 25.9532 0.0606716 
14.2508 28.4998 2.86465 
14.2191 28.4903 0.168951 
12.9726 27.0201 1.49585 
15.6438 27.3163 1.37936 
14.3853 25.9369 2.96077 
14.2536 25.8303 0.00432872 
17.1719 28.6528 2.87566 
18.6749 27.2352 1.52917 
17.1818 25.7722 2.89152 
20.0329 26.0361 3.07795 
20.0183 25.7831 0.215495 
23.0831 28.6969 2.82361 
21.641 27.2233 1.38469 
22.8193 25.79 3.01138 
22.946 25.7355 0.190051 
24.4009 27.1042 1.45633 
25.9972 28.5971 2.70158 
28.6743 25.7791 3.10975 
27.3327 27.2598 1.19694 
25.9139 25.8945 3.09253 
25.8274 25.7645 0.170856 
1.49772 1.55555 4.37289 
1.57557 1.53123 7.21561 
3.03139 2.87796 5.75464 
0.075691 2.94256 5.76077 
0.036478 0.15545 5.82845 
4.24582 1.61164 4.36418 
7.11098 1.35701 4.36627 
4.24058 1.44182 7.189 
7.15319 1.28771 7.10742 
5.77511 2.98654 5.60683 
9.98166 1.59945 4.10895 
9.99094 1.56769 7.27747 
8.44892 3.00519 5.60428 
11.3571 2.82989 5.72506 
8.6905 0.0894462 5.77703 
12.8196 1.4557 4.32971 
15.7892 1.23032 4.39969 
12.9545 1.48105 7.00392 
15.6459 1.39453 7.01396 
14.3081 2.90695 5.63189 
18.7704 1.18897 4.19039 
18.6534 1.42962 7.12279 
17.1387 2.64307 5.81411 
19.9335 2.74198 5.57849 
17.1172 0.0669549 5.79543 
19.9892 0.0727206 5.82576 
21.5404 1.22902 4.23156 
24.4522 1.46245 4.22977 
21.4898 1.58722 6.99523 
24.3748 1.51762 7.14583 
22.9533 2.81596 5.66997 
22.9049 0.155762 5.80098 
27.3298 1.51224 4.32038 
27.1149 1.50382 7.18503 
25.6975 3.04353 5.70157 
25.8869 0.124972 5.60142 
1.49052 4.15504 4.27533 
1.2873 7.26501 4.14717 
1.38906 4.28394 6.97818 
1.30348 7.15238 7.16488 
2.97 5.7785 5.46926 
4.35278 4.36538 4.17451 
4.25356 7.45049 4.16032 
7.07256 7.28277 4.2794 
4.24433 7.25328 7.10993 
4.34652 4.34198 6.96249 
7.23053 4.27202 7.12772 
5.74928 5.85207 5.72481 
7.0827 7.43677 7.0742 
9.89746 4.36887 4.23367 
10.0631 7.38574 4.38702 
9.97686 4.39118 7.23388 
8.50448 5.85836 5.77782 
10.1178 7.39303 7.17389 
11.4486 5.81019 5.48925 
15.6822 4.38312 4.16755 
12.9335 4.21655 4.38256 
12.9641 7.27628 4.43408 
15.9288 7.29669 4.49392 
12.7664 4.20979 7.06335 
15.6889 4.28371 7.12395 
12.9073 7.22537 7.01431 
14.392 5.80428 5.5898 
15.7612 7.00883 7.2472 
18.5481 4.22556 4.23596 
18.659 7.19744 4.32664 
18.7048 4.28055 6.92906 
17.3608 5.80739 5.65669 
18.536 7.06145 7.23108 
20.1862 5.6157 5.6704 
24.36 4.35744 4.29064 
21.5926 7.14313 4.31745 
24.3402 7.26959 4.20915 
21.6801 4.27983 7.12218 
21.5233 7.13281 7.06384 
22.9338 5.50896 5.71531 
24.3983 7.19993 7.11042 
24.3749 4.3098 7.06543 
27.3073 4.27388 4.39755 
26.9697 7.27335 4.16765 
28.5959 5.91321 5.47978 
27.2026 4.41375 6.93941 
25.6862 5.79233 5.67721 
27.2293 7.11075 7.03608 
1.30382 9.7836 4.25641 
1.33864 9.79427 7.04161 
2.94352 8.57137 5.66602 
2.74056 11.4611 5.62459 
0.182383 11.5325 5.6424 
4.13767 10.1048 4.24143 
7.25628 10.1862 4.15552 
4.1206 10.1227 7.10688 
5.70818 8.68613 5.74716 
7.05055 10.2593 7.16066 
5.71214 11.5831 5.64589 
10.0001 10.2475 4.36122 
8.64165 8.65238 5.61437 
9.95074 10.2829 7.06821 
11.5534 8.81815 5.73343 
8.56782 11.5439 5.78014 
11.5779 11.5148 5.74895 
12.9979 10.0806 4.44004 
15.8468 9.91685 4.41948 
12.9412 9.95892 7.47183 
14.4467 8.60393 5.96659 
15.7559 9.83492 7.26773 
14.2547 11.3608 6.04599 
18.7958 10.162 4.23688 
17.2612 8.61129 5.75861 
18.4347 10.0559 7.141 
19.9603 8.60976 5.80822 
17.1393 11.5576 5.8237 
19.9637 11.7847 5.91292 
21.3358 10.1809 4.34752 
24.4842 10.1347 4.29454 
21.3376 10.1332 7.34675 
22.9268 8.68268 5.67897 
22.8521 11.3592 5.88834 
24.4454 10.2216 7.20162 
27.4145 9.92383 4.17703 
28.5691 8.56022 5.61388 
25.8367 8.67428 5.82157 
27.3994 10.0137 6.97998 
26.1007 11.4626 5.56204 
1.41831 15.6243 4.35876 
1.32149 13.1735 7.02975 
1.57678 15.8208 7.00551 
3.00342 14.3879 5.66224 
4.52602 15.7343 4.25472 
7.25381 12.8615 4.34891 
7.05659 15.9247 4.44885 
4.23952 13.0009 7.11285 
7.09252 12.9746 7.20012 
4.40863 16.03 6.97728 
5.80828 14.3423 5.69135 
7.03338 15.9214 7.00666 
9.92553 12.9768 4.35941 
9.94755 15.7978 4.26545 
10.154 12.8901 7.12844 
8.63199 14.3669 5.82107 
9.96865 15.8226 7.2022 
11.6553 14.5116 5.7265 
13.0126 13.0207 4.35428 
15.6151 12.8703 4.52614 
12.8157 15.8708 4.2598 
15.5202 15.8116 4.29592 
12.6462 12.9815 7.31775 
15.6763 12.9538 7.18273 
12.8244 15.7236 7.41023 
14.2142 14.4567 5.56828 
15.7272 15.768 7.13224 
18.4886 12.9075 4.36138 
18.7378 15.6398 4.17394 
18.5452 13.0643 7.28585 
17.2919 14.4176 5.69394 
18.6037 15.7891 7.04151 
20.077 14.2205 5.47733 
21.5659 12.8426 4.25485 
21.7235 15.5547 4.34809 
24.4202 12.7176 4.26775 
24.4634 15.6755 4.46355 
21.5809 12.9417 7.3141 
24.5004 12.868 7.18448 
21.4667 15.7741 6.94027 
23.0636 14.1802 5.63224 
24.4313 15.6243 7.24972 
27.2867 15.7167 4.27314 
28.6061 14.3774 5.54382 
27.3637 12.9118 6.977 
25.9249 14.2249 5.71662 
27.4113 15.8405 7.09006 
1.23376 18.525 4.19345 
1.37833 18.595 7.22945 
2.80399 17.2997 5.75329 
2.70229 19.999 5.81706 
0.058436 19.9752 5.94314 
4.22728 18.7723 4.2049 
7.19159 18.7504 4.17974 
4.31848 18.6344 7.22269 
5.70451 17.5508 5.70573 
7.15055 18.7869 7.25979 
5.87211 20.0821 5.78597 
9.82084 18.6992 4.49352 
8.48875 17.2751 5.94296 
9.88999 18.7204 7.01181 
11.4955 17.2045 5.62888 
8.53712 20.3922 5.77687 
11.4313 20.0313 5.97925 
12.8512 18.5191 4.29669 
15.8004 18.6065 4.35928 
12.7615 18.5741 7.30235 
14.2572 17.2667 5.75007 
15.7367 18.5079 7.26455 
14.2435 20.1775 5.87932 
18.7436 18.5916 4.18403 
17.197 17.2138 5.74095 
18.7555 18.699 7.33863 
20.0272 17.214 5.6912 
17.0404 19.9624 5.89844 
20.1018 20.1366 5.90739 
21.6043 18.6839 4.46891 
24.331 18.4612 4.24583 
21.5717 18.6763 7.26547 
22.9727 17.0978 5.83149 
24.3336 18.6276 7.22689 
23.0074 20.051 5.88049 
27.1976 18.6469 4.35387 
28.5777 17.3373 5.64761 
25.8058 17.4773 5.7157 
27.2213 18.8612 7.29113 
25.7231 20.0425 5.55451 
1.45915 21.4155 4.49911 
1.5347 24.2842 4.54033 
1.59119 21.6719 7.17253 
3.04612 22.8611 5.84141 
1.40265 24.3801 7.14392 
0.119399 22.9132 5.85641 
4.28868 21.3277 4.3749 
7.07045 21.6375 4.27563 
7.14592 24.3921 4.3345 
4.31661 24.218 4.45353 
4.22293 21.4535 7.10169 
7.05741 21.4942 7.36856 
4.17895 24.3012 7.38799 
5.76536 22.9291 5.81057 
7.07025 24.3738 7.24935 
10.0592 21.6846 4.30205 
10.1459 24.2789 4.3971 
10.0605 21.4518 7.21739 
8.54264 23.0525 5.87569 
9.9871 24.3263 7.24828 
11.4687 22.8244 5.78994 
12.7949 21.4678 4.35989 
15.7652 21.5003 4.25185 
15.5538 24.3326 4.39966 
12.7288 24.3129 4.23871 
12.7772 21.5665 7.13494 
15.7247 21.4187 7.225 
14.2156 22.7969 5.65302 
15.72 24.3766 7.08852 
12.9651 24.5128 7.22171 
18.5741 21.5095 4.32948 
18.6978 24.2096 4.34058 
18.5772 21.4208 7.1706 
17.0758 22.8899 5.76988 
18.8398 24.5554 7.12386 
20.1559 22.8848 5.84784 
21.7826 21.4147 4.45756 
24.3501 21.4203 4.309 
21.452 24.5212 4.58296 
24.3787 24.5318 4.27111 
21.7217 21.3261 7.36895 
21.6732 24.5578 7.11682 
23.1455 23.053 5.86506 
24.3637 21.5575 7.309 
27.0761 21.2668 4.27728 
27.2282 24.5215 4.42898 
27.2521 21.4033 6.94642 
25.6851 23.1299 5.74725 
27.1987 24.448 7.05057 
1.47572 27.2255 4.21845 
2.98081 28.6992 5.65208 
1.175 27.2536 6.94304 
2.82893 25.9246 5.67146 
4.20688 27.3237 4.25104 
7.03686 27.1657 4.34518 
5.5519 28.6867 5.63213 
4.2873 27.2889 7.27101 
5.46767 25.8799 5.75901 
7.10658 27.3002 7.14897 
9.88868 27.3251 4.25411 
11.4049 28.5967 5.78515 
8.62162 25.9052 5.86513 
10.0977 27.2583 7.24001 
11.3023 25.8105 5.79344 
12.8937 27.2002 4.30318 
15.7712 27.3175 4.40145 
14.3084 28.657 5.75358 
12.8136 27.2897 7.25485 
14.2105 25.903 5.74248 
15.7256 27.2394 7.14893 
18.6259 27.3456 4.47868 
17.1579 25.6877 5.77312 
18.9309 27.3414 7.15528 
20.038 25.9714 5.64132 
21.5937 27.422 4.35874 
24.4453 27.2587 4.38791 
24.3593 24.6538 7.05227 
21.7018 27.5495 7.23938 
23.0077 26.0367 5.56766 
24.4709 27.3642 7.18507 
27.4221 27.4223 4.37129 
28.7094 25.8617 5.6011 
26.0147 25.9827 5.85054 
27.1772 27.4207 7.26295 
2.79868 2.86793 8.75544 
0.0979411 3.0325 8.40756 
2.73069 0.0473552 8.63456 
1.23803 1.43307 9.87428 
2.90427 2.89359 11.3705 
2.89312 0.0445293 11.4336 
0.0265039 3.08567 11.2392 
5.79819 2.98574 8.68577 
5.78926 0.00473012 8.52111 
4.42374 1.35644 9.99894 
7.19802 1.58597 9.99212 
5.89981 3.02379 11.3684 
8.51041 2.8592 8.594 
11.5616 2.72693 8.52658 
11.5473 0.0387211 8.42862 
8.64003 0.235121 8.42713 
8.56722 0.0116777 11.3108 
11.4527 0.0590953 11.4624 
10.0967 1.34101 10.0009 
8.62839 2.7315 11.2605 
11.355 2.99815 11.5333 
14.506 2.85075 8.59647 
13.0533 1.5512 9.94679 
15.9671 1.41477 9.94522 
14.3532 2.75799 11.3956 
17.2194 2.72942 8.50463 
19.9907 2.83054 8.53908 
20.1999 0.279878 8.56241 
20.1316 0.0363087 11.3919 
18.6477 1.38796 10.107 
17.3482 2.99387 11.5679 
20.119 2.95006 11.4009 
23.0188 2.88238 8.72382 
23.0672 0.256933 8.68823 
23.06 0.0901088 11.6046 
21.5967 1.38798 10.0606 
24.3463 1.54894 10.0211 
22.9353 2.81623 11.3821 
25.7452 2.83874 8.44186 
28.67 0.0681855 8.39301 
28.4259 0.164837 11.4951 
27.3251 1.55885 9.80122 
25.9274 2.84269 11.2531 
2.92341 5.66607 8.49167 
1.46178 4.4685 10.0127 
1.39968 7.31634 9.70616 
3.02239 5.79755 11.6165 
0.0748209 5.85352 11.5339 
5.82502 5.86705 8.27803 
4.40966 4.42544 10.0245 
4.22413 7.16535 9.90925 
7.29844 4.51734 10.1027 
7.23747 7.26442 9.86513 
5.73847 5.98854 11.502 
8.60498 5.74985 8.42564 
11.528 5.58767 8.51703 
9.98592 4.33259 10.0048 
10.021 7.26681 9.89243 
8.66652 5.93972 11.5012 
11.4683 5.66031 11.2034 
14.1495 5.64409 8.72844 
15.8371 4.34132 10.116 
12.8708 4.2271 9.98585 
12.7732 7.06998 9.88561 
15.7066 7.17072 9.95701 
14.3586 5.67358 11.3111 
17.1036 5.64153 8.55261 
20.1229 5.64571 8.54157 
18.6309 4.21522 9.99194 
18.5969 7.12256 10.0963 
17.1296 5.73631 11.3538 
20.0495 5.80169 11.6159 
22.9574 5.7045 8.57265 
21.4223 4.23967 10.0219 
21.3209 7.18042 10.032 
22.8943 5.80339 11.3747 
24.4307 7.39662 10.0098 
24.4609 4.56404 10.0709 
28.6674 5.72182 8.51606 
25.8159 5.73649 8.61233 
27.272 4.53518 9.97711 
27.3776 7.27184 10.0737 
25.91 5.78277 11.386 
2.78304 8.61313 8.46348 
2.78149 11.5243 8.34034 
0.0617792 11.4958 8.44644 
1.35111 10.0745 10.0015 
2.85332 8.63586 11.4395 
2.8265 11.5956 11.4408 
0.0658102 11.5718 11.4374 
5.56067 8.79017 8.68642 
5.62436 11.504 8.61136 
4.29592 10.1261 10.0737 
7.14451 10.1915 10.0856 
5.75507 8.59886 11.3947 
5.81763 11.636 11.4856 
8.66255 8.70685 8.53264 
11.3015 8.5684 8.59977 
8.57739 11.4795 8.6644 
11.3955 11.4696 8.5779 
10.0851 10.0119 10.0883 
8.63686 8.51683 11.2454 
11.4136 8.68849 11.4718 
8.49745 11.3002 11.4881 
11.3721 11.6283 11.5589 
14.3232 8.43804 8.71561 
14.4028 11.5151 8.52946 
12.7702 9.98742 9.9951 
15.7448 9.89378 10.0915 
14.2994 8.64076 11.225 
14.1577 11.6028 11.3433 
17.2156 8.56348 8.65758 
19.9158 8.55599 8.56652 
17.2161 11.3995 8.83106 
20.0612 11.5357 8.70171 
18.6416 10.0611 10.055 
17.2338 8.61134 11.4168 
20.0469 8.71034 11.5035 
17.0721 11.5464 11.672 
20.008 11.479 11.4591 
22.8353 8.50749 8.5848 
22.8027 11.4297 8.54614 
21.5534 10.1709 10.1903 
23.0398 8.71674 11.4296 
22.8609 11.6227 11.3733 
24.4713 10.147 10.0459 
28.5811 8.69095 8.56759 
25.81 8.69015 8.53877 
25.945 11.4927 8.46074 
28.6416 8.65632 11.4063 
27.2817 10.3957 10.1688 
25.8637 8.68431 11.4008 
25.7236 11.5193 11.6198 
2.88113 14.5962 8.54641 
0.101225 14.2151 8.78644 
1.62975 13.0029 10.0365 
1.31944 15.9109 9.9854 
2.96482 14.3259 11.5271 
5.42526 14.4906 8.61345 
4.19207 12.8685 10.0685 
7.24605 12.9552 9.8765 
4.33409 16.0095 10.1426 
6.98821 15.9192 10.072 
5.80566 14.2018 11.5381 
8.58618 14.2876 8.56391 
11.4933 14.4342 8.72866 
9.97641 12.843 10.0104 
9.83284 15.7756 10.0362 
8.63619 14.4588 11.5926 
11.308 14.3612 11.329 
14.4266 14.3104 8.63018 
12.8697 12.8595 10.0401 
15.7517 12.889 10.2933 
12.9378 15.8908 10.1017 
15.7434 15.9017 10.1962 
14.1443 14.5648 11.4967 
17.0329 14.3167 8.64411 
19.9596 14.2122 8.49341 
18.5961 13.1087 10.0836 
18.6858 15.7833 10.0765 
17.1317 14.4411 11.4863 
20.0475 14.3438 11.5132 
22.9691 14.3447 8.5515 
21.4868 12.9611 9.93898 
21.4423 15.6467 10.0608 
23.1123 14.2736 11.4888 
24.4609 12.8447 9.97275 
24.5174 15.6016 9.85553 
25.9604 14.4347 8.47391 
28.7049 14.2779 11.3892 
27.15 12.8615 9.93373 
27.5847 16.0656 10.0312 
25.8609 14.3888 11.4957 
2.80808 17.3449 8.71779 
2.95084 20.0855 8.73999 
0.0365599 17.257 8.41218 
0.147865 20.1754 8.89775 
1.35518 18.7606 10.1596 
2.64203 17.2439 11.6445 
2.84045 20.2593 11.6065 
0.0773662 20.0615 11.6797 
0.0412794 17.2664 11.7525 
5.67402 17.3648 8.603 
5.58674 20.098 8.66731 
4.28042 18.649 10.0965 
7.36969 18.7803 10.2025 
5.72681 17.3366 11.6049 
5.78683 20.2699 11.4574 
8.6672 17.2624 8.73021 
11.3739 17.3557 8.68943 
8.46278 20.2193 8.62884 
11.3623 20.1567 8.56974 
9.92435 18.7072 10.0957 
8.32899 17.0353 11.6672 
11.4119 17.2869 11.4836 
8.81182 20.2537 11.4328 
11.587 20.1591 11.6435 
14.2019 17.4013 8.67159 
14.2963 20.3355 8.6008 
12.938 18.9636 10.1178 
15.6944 18.8077 9.9879 
14.4322 17.4433 11.6178 
14.264 20.4086 11.6558 
17.2778 17.1264 8.6469 
20.1287 17.1028 8.64464 
17.2147 20.2465 8.59572 
20.0255 20.2089 8.80481 
18.711 18.591 10.0892 
17.1221 17.2525 11.5361 
20.0217 16.9879 11.4432 
17.3633 20.217 11.5999 
20.0547 20.1869 11.3806 
22.8831 17.1391 8.61797 
23.0126 19.9524 8.81708 
21.6045 18.6093 10.0151 
23.0934 17.0549 11.6541 
22.9714 20.1108 11.4633 
24.3612 18.6671 10.1298 
25.9192 17.1613 8.51463 
25.9397 20.1698 8.77532 
27.4086 18.759 10.1732 
25.6779 17.1247 11.5247 
25.7522 19.9989 11.5878 
2.89186 22.8305 8.73051 
1.26605 24.3618 10.1434 
0.150797 22.987 11.7379 
1.39074 21.6714 10.1761 
2.90806 23.0209 11.5976 
5.77929 23.0036 8.59111 
4.20587 24.3099 9.94295 
7.18865 24.5634 10.0554 
4.38414 21.6563 10.1786 
7.0762 21.3878 10.0584 
5.72977 23.2321 11.5342 
8.66904 23.0041 8.60592 
11.56 22.8639 8.60368 
10.1765 24.4701 10.1823 
10.0965 21.6425 9.88411 
8.66618 23.0163 11.5949 
11.5192 22.9379 11.5728 
14.2188 23.0672 8.68066 
12.8647 21.5953 10.0102 
15.6558 21.6435 10.1324 
12.9218 24.5267 10.3709 
15.8543 24.5095 9.98191 
14.2374 22.8105 11.6049 
17.3017 23.0944 8.31566 
20.0894 22.9624 8.46039 
18.5183 21.7531 9.92618 
18.7913 24.3916 9.97754 
20.2792 23.0438 11.3517 
17.297 23.1779 11.4363 
22.9983 22.9592 8.38205 
22.9227 23.0461 11.4661 
21.6577 21.6426 10.0153 
24.4308 24.386 9.9824 
21.596 24.5399 9.81946 
24.3491 21.6018 10.0057 
28.6637 23.0174 8.57391 
25.7416 23.0896 8.4055 
25.9485 22.9123 11.5566 
27.3657 24.4865 10.1868 
27.3341 21.6927 10.1446 
2.72975 25.8041 8.54098 
0.025411 25.8354 8.38787 
2.75139 25.7997 11.4382 
1.19668 27.3955 9.97036 
5.72787 25.9339 8.69228 
4.14449 27.3105 9.97104 
7.15995 27.3932 9.98145 
5.75493 25.7871 11.5571 
5.76147 28.6729 11.3215 
8.62269 25.9167 8.6144 
11.4424 25.8448 8.6903 
10.1237 27.3833 9.94636 
8.66674 25.948 11.4814 
11.6648 25.993 11.6143 
14.3444 28.712 8.45612 
14.3766 25.9635 8.46441 
12.8889 27.2637 9.93916 
15.6856 27.3394 9.90389 
14.4947 25.9488 11.4785 
14.454 28.6551 11.4103 
17.1684 28.7009 8.54556 
17.271 25.8416 8.48184 
20.2571 25.8074 8.5321 
20.1552 25.8163 11.5803 
18.6458 27.3059 10.0963 
17.226 25.9147 11.3876 
17.1973 28.609 11.3472 
23.1022 26.0064 8.45717 
22.8382 26.0171 11.4346 
24.2782 27.2931 10.0436 
21.3847 27.284 10.0973 
25.7363 28.6272 8.75753 
25.9172 25.7986 8.59854 
28.6727 25.8672 11.3857 
25.7342 25.8387 11.5052 
27.1545 27.2546 10.0597 
25.7958 28.5679 11.4378 
1.46878 1.44596 12.7335 
2.77353 0.240157 14.2434 
2.96544 2.96758 14.239 
0.0353243 2.8829 14.219 
1.40105 1.53053 15.6961 
4.23198 1.44786 12.7749 
7.11048 1.42261 12.7331 
5.75527 2.83367 14.14 
4.37803 1.60562 15.7046 
7.14691 1.5337 15.8024 
5.70593 0.0858779 14.4315 
10.0762 1.41477 12.6978 
11.4236 2.87286 14.224 
8.62308 2.95478 14.125 
8.59559 0.0547376 14.2448 
10.0522 1.58992 15.7625 
13.0548 1.27091 12.7851 
15.9387 1.3618 12.9111 
14.2475 2.95004 14.2424 
12.884 1.55628 15.716 
15.6764 1.37264 15.8244 
14.3587 0.129181 14.3929 
18.6771 1.22353 13.0523 
18.5566 1.45471 15.8223 
20.1271 0.157207 14.6223 
17.1578 0.00828641 14.4285 
20.0012 2.82171 14.4374 
17.1921 2.8256 14.4769 
21.3812 1.46857 12.8319 
24.3995 1.73878 12.8851 
21.5575 1.44284 15.8209 
24.3774 1.50834 15.7616 
23.0925 0.165539 14.4484 
22.9644 3.12526 14.4725 
25.9186 0.149123 14.2964 
27.2545 1.60782 12.8142 
25.9261 3.00818 14.277 
27.4246 1.49746 15.6304 
1.46998 4.52565 12.7655 
1.54727 7.20837 12.8121 
2.93139 5.93309 14.2863 
0.066435 5.81188 14.1405 
1.42631 4.3005 15.6355 
1.49721 7.02496 15.5204 
4.3225 4.2852 12.8271 
7.18455 4.23959 12.7709 
4.31275 7.44782 12.7499 
7.20715 7.54305 12.8665 
5.79781 5.70415 14.0445 
7.13417 4.27565 15.6539 
4.44289 4.46284 15.7599 
4.38589 7.11328 15.7105 
7.18023 7.07613 15.8734 
9.9058 4.34057 12.7529 
10.0753 7.17494 12.9164 
11.5008 5.75504 14.2275 
8.52547 5.67623 14.2698 
10.1052 4.11291 15.6294 
10.0103 7.14612 15.8064 
12.8209 4.34256 12.7426 
15.5838 4.17856 12.8004 
13.0885 7.30249 12.7247 
15.6315 7.26375 12.8187 
14.3579 5.79276 14.1226 
12.8381 4.23508 15.643 
15.746 4.30705 15.6788 
12.9158 7.26342 15.8495 
15.9211 7.07301 15.5522 
18.5206 4.3979 12.9609 
18.5857 7.17289 12.9183 
17.2092 5.72521 14.3111 
18.7038 4.28892 15.8733 
18.7457 7.15618 15.7284 
20.1212 5.71492 14.4774 
24.3338 4.41378 12.8053 
21.4031 4.35896 12.837 
21.5221 7.27327 12.8698 
24.4913 7.01667 12.8561 
21.5854 4.41365 15.886 
21.5554 7.24664 15.8423 
24.3573 7.12176 15.9817 
24.3971 4.28452 15.8663 
22.9578 6.05378 14.3771 
27.3676 4.30877 12.7406 
27.3273 7.32275 12.938 
27.4875 4.44407 15.6189 
27.2918 7.32277 15.7044 
25.9113 5.77808 14.3684 
1.3721 10.0459 12.8327 
0.203191 8.65999 14.3206 
3.0483 8.7389 14.1395 
1.71884 10.0363 15.5971 
0.0928207 11.4893 14.3594 
2.87614 11.442 14.41 
4.37536 10.1709 12.7401 
7.18795 9.99825 13.0029 
4.40869 10.0464 15.869 
7.16049 9.95772 15.7943 
5.75596 11.3936 14.3792 
5.76509 8.71596 14.4039 
10.001 10.0949 12.766 
8.73886 11.489 14.2951 
10.0267 10.081 16.0314 
11.5865 11.5025 14.4806 
11.3289 8.67595 14.458 
8.65912 8.75526 14.5489 
12.8447 9.91485 12.7868 
15.65 9.94318 12.9607 
12.9234 10.012 15.8566 
15.6363 10.017 15.7475 
14.2259 11.4033 14.4059 
14.2266 8.61592 14.4109 
18.671 9.99164 12.96 
17.1841 8.66814 13.9652 
20.216 8.61631 14.1935 
20.0843 11.3531 14.3208 
18.8373 9.95031 15.7092 
17.1938 11.443 14.4114 
21.4866 10.011 12.8566 
24.293 10.1077 12.9744 
22.9704 8.71935 14.2098 
21.6072 10.0344 15.8034 
24.3704 10.0242 15.8355 
22.9425 11.5726 14.5566 
27.3299 10.1117 12.8787 
27.2447 9.8913 15.732 
25.6364 8.57877 14.3785 
25.7375 11.4659 14.4391 
1.47042 13.0254 13.0335 
1.5564 15.5972 13.0567 
1.54038 12.7862 15.9116 
1.47407 15.7715 15.7329 
0.103332 14.2995 14.4885 
2.89748 14.2264 14.4458 
4.38405 12.855 13.0604 
7.23057 12.8538 12.9641 
4.4012 15.6653 12.7712 
7.02198 15.7069 13.208 
5.78094 14.2107 14.339 
4.50528 12.9544 15.8556 
7.01707 12.8241 15.8646 
4.36576 15.6277 15.8239 
7.19904 15.6987 15.7017 
9.99074 12.9744 12.9145 
9.95595 15.931 12.9725 
11.3548 14.4057 14.2401 
9.92891 12.8656 15.8578 
10.1504 15.671 15.8983 
8.75865 14.2777 14.4276 
12.854 13.0672 13.0292 
15.5473 12.9022 13.208 
12.9388 15.8847 12.8232 
15.6891 15.7496 12.9542 
12.8669 12.9757 15.7877 
15.8921 12.8915 15.7761 
12.8446 15.8426 15.6884 
15.9695 15.8566 15.6617 
14.2643 14.3683 14.4248 
18.5426 12.7239 13.0111 
18.5316 15.68 13.0822 
17.2428 14.1145 14.2542 
18.6316 12.6127 15.8598 
18.5915 15.6477 15.8408 
20.0388 14.2114 14.3627 
21.5025 12.9629 13.0139 
21.6227 15.7504 12.8642 
24.4217 12.8496 12.9513 
24.4123 15.6882 13.0628 
21.5318 12.88 15.7357 
24.4182 12.9567 15.9665 
21.4236 15.7783 16.0165 
24.4857 15.8449 15.756 
22.9176 14.2513 14.5391 
27.3333 12.8606 12.8683 
27.2179 15.871 12.9423 
27.2606 12.8499 15.7819 
27.3701 15.7957 15.9362 
25.8663 14.1582 14.5611 
1.38767 18.6098 13.2733 
2.8117 17.2205 14.3208 
1.50134 18.5447 15.7902 
0.00109321 17.1162 14.4229 
2.76222 20.0404 14.6486 
4.29069 18.7748 12.8781 
7.41484 18.6815 13.0677 
5.58014 17.2905 14.2883 
5.821 20.0602 14.3367 
4.49229 18.6753 15.7112 
7.29361 18.604 15.738 
10.0392 18.7109 13.0471 
8.57834 20.274 14.3513 
10.101 18.7087 15.7559 
8.68057 17.1192 14.4152 
11.3518 17.2204 14.409 
11.4571 20.1634 14.5432 
12.8617 18.643 13.1015 
15.9542 18.6507 12.8835 
14.1087 20.0584 14.3198 
12.914 18.6478 15.9795 
15.7703 18.0041 16.3617 
14.3677 17.3408 14.5172 
16.1845 19.62 15.1177 
18.8431 18.6148 12.9088 
17.8894 20.315 13.9803 
17.4512 17.2491 14.3476 
20.1106 17.1992 14.3197 
18.6441 18.6789 15.6375 
20.2534 20.1772 14.3716 
21.5616 18.6828 12.6745 
24.2272 18.6408 13.0076 
21.4464 18.5754 15.7428 
24.2629 18.4941 15.8596 
22.8432 17.1232 14.462 
22.9546 20.0828 14.5032 
27.3255 18.5061 12.9613 
25.8929 17.1624 14.2838 
28.5475 19.9953 14.5481 
27.2242 18.432 15.8047 
25.7131 19.9642 14.5433 
1.40206 21.4033 13.1809 
1.29447 24.6071 12.958 
2.94953 23.1941 14.1849 
1.46368 21.6595 15.8591 
1.45165 24.4728 15.5737 
0.0701485 22.9503 14.4061 
4.29331 21.5053 13.1238 
7.06182 21.5399 12.9166 
4.42767 24.5488 13.0194 
7.3394 24.3906 13.024 
4.22197 21.5547 15.9984 
7.00611 21.3932 15.813 
4.36997 24.4688 15.6145 
7.09103 24.304 15.6375 
5.65777 22.8334 14.4398 
10.2212 21.5954 13.0377 
10.1243 24.4742 13.1461 
9.91606 21.5224 15.9425 
9.99534 24.4924 15.9678 
8.73265 23.0106 14.4676 
11.5056 23.1449 14.7143 
12.8776 21.6066 13.2673 
15.9116 21.5784 13.0864 
12.8999 24.4623 13.0282 
15.8183 24.4859 12.9365 
12.9828 21.4429 15.8607 
15.6518 21.686 15.9357 
15.8288 24.4695 15.6651 
13.0845 24.5106 15.989 
14.411 23.0675 14.3808 
18.8631 22.0402 12.7318 
18.6591 24.5357 12.9047 
20.2549 23.0091 14.2708 
18.6774 21.5042 15.9617 
18.7056 24.3868 15.556 
17.4426 22.7617 14.3835 
24.2785 21.6837 12.7884 
21.5701 21.6866 12.8306 
21.6064 24.6102 12.9232 
24.4028 24.4799 12.8914 
21.5506 21.6141 15.7644 
24.3262 21.5514 15.8426 
21.6296 24.4212 15.732 
22.9958 22.932 14.3562 
24.2729 24.4562 15.6856 
27.1998 24.3796 12.9835 
27.2947 21.4669 13.0376 
25.9027 22.9529 14.3097 
27.2038 21.5592 15.8681 
27.2853 24.485 15.7317 
1.2961 27.348 12.726 
2.82416 26.0608 14.2757 
1.47796 27.2629 15.7922 
5.81451 25.8153 14.307 
4.42177 27.2369 12.9023 
7.18695 27.3197 12.8422 
4.32504 27.3033 15.8947 
6.98256 27.2739 15.6134 
10.0115 27.2816 12.7969 
11.4361 28.7094 14.0906 
9.91431 27.4082 15.7852 
11.3044 25.9836 14.4258 
8.54062 25.8956 14.3702 
14.2837 25.9483 14.2673 
13.0549 27.3589 13.036 
15.8701 27.288 12.985 
12.8416 27.3452 15.5899 
15.8349 27.3117 15.8204 
17.1538 25.8998 14.265 
18.6588 27.5256 12.948 
20.0409 26.0121 14.302 
18.6309 27.3795 15.8297 
21.4337 27.3469 13.0861 
24.467 27.3508 12.9199 
21.6365 27.41 15.8579 
24.2687 27.2717 15.9812 
22.9334 25.8855 14.4169 
28.5542 26.0089 14.301 
27.3198 27.2786 12.9902 
28.6656 28.6531 14.3421 
27.1717 27.2974 15.9414 
25.7447 25.9735 14.3638 
1.41761 1.56798 18.5143 
2.86246 3.04666 17.1313 
2.70714 0.101709 17.1553 
2.85365 2.89068 20.0236 
0.0391333 2.9731 19.9736 
4.32094 1.47985 18.4174 
7.15183 1.54864 18.4342 
5.72389 2.81536 17.0802 
5.8577 3.01854 20.1241 
5.7894 0.253658 19.9099 
10.07 1.29666 18.7814 
8.73338 2.74046 17.1892 
11.4495 2.94678 17.3227 
11.4676 0.0470282 17.1955 
8.52326 0.0125158 17.1144 
8.56612 2.8923 20.133 
11.401 3.0522 20.2138 
8.6345 0.040927 20.152 
12.8135 1.443 18.7986 
15.844 1.60971 18.6756 
14.1796 2.87745 17.2975 
14.4078 2.80377 20.051 
18.7553 1.54581 18.6743 
17.3694 2.95528 17.4442 
20.1507 2.99072 17.3083 
17.1557 0.261011 17.2981 
20.0908 0.0464682 17.2021 
17.2013 2.89314 20.1691 
20.1808 2.87568 20.2567 
21.4195 1.50312 18.6516 
22.9463 2.93944 17.2725 
24.463 1.43201 18.6912 
22.8915 0.051835 17.4328 
22.9959 2.89571 20.268 
28.7054 3.06843 17.099 
27.2185 1.57617 18.4905 
25.9548 2.96553 17.1105 
28.6653 0.155916 17.1742 
25.901 2.90652 20.2982 
25.9681 0.0394559 20.0838 
1.45821 4.24539 18.5621 
1.69455 7.00563 18.4846 
3.05425 5.76866 17.1708 
0.10968 5.86189 17.1441 
3.00649 5.74202 20.1649 