ITEM: TIMESTEP
19042
ITEM: NUMBER OF ATOMS
18
ITEM: BOX BOUNDS pp pp pp
0.0000000000000000e+00 2.8712000000000000e+01
0.0000000000000000e+00 2.8712000000000000e+01
0.0000000000000000e+00 2.8712000000000000e+01
ITEM: ATOMS x y z c_cna 
17.2266 20.0959 11.5225 5 
15.6403 18.5097 12.5188 5 
14.2521 20.0913 14.3564 5 
14.4061 17.2756 14.3564 5 
15.6404 18.5099 16.194 5 
16.4774 19.3469 14.3565 5 
18.6253 18.6972 12.9342 5 
20.2009 20.1007 14.3565 5 
17.2218 17.1216 14.3565 5 
18.6253 18.6971 15.7788 5 
15.8278 21.4947 12.9342 5 
15.8278 21.4947 15.7788 5 
17.9755 20.8449 14.3565 5 
18.8127 21.6821 12.519 5 
17.2312 23.0704 14.3565 5 
20.0469 22.9165 14.3566 5 
18.8128 21.6823 16.1943 5 
17.2266 20.096 17.1905 5 
ITEM: TIMESTEP
19043
ITEM: NUMBER OF ATOMS
18
ITEM: BOX BOUNDS pp pp pp
0.0000000000000000e+00 2.8712000000000000e+01
0.0000000000000000e+00 2.8712000000000000e+01
0.0000000000000000e+00 2.8712000000000000e+01
ITEM: ATOMS x y z c_cna 
17.2266 20.0959 11.5225 5 
15.6403 18.5097 12.5188 5 
14.2521 20.0913 14.3564 5 
14.4061 17.2756 14.3564 5 
15.6404 18.5099 16.194 5 
16.4774 19.3469 14.3565 5 
18.6253 18.6972 12.9342 5 
20.2009 20.1007 14.3565 5 
17.2218 17.1216 14.3565 5 
18.6253 18.6971 15.7788 5 
15.8278 21.4947 12.9342 5 
15.8278 21.4947 15.7788 5 
17.9755 20.8449 14.3565 5 
18.8127 21.6821 12.519 5 
17.2312 23.0704 14.3565 5 
20.0469 22.9165 14.3566 5 
18.8128 21.6823 16.1943 5 
17.2266 20.096 17.1905 5 
