ITEM: TIMESTEP
19000
ITEM: NUMBER OF ATOMS
2001
ITEM: BOX BOUNDS pp pp pp
0.0000000000000000e+00 2.8712000000000000e+01
0.0000000000000000e+00 2.8712000000000000e+01
0.0000000000000000e+00 2.8712000000000000e+01
ITEM: ATOMS x y z 
1.3212 1.33404 1.30926 
2.8087 2.79508 2.98323 
2.84335 2.80849 0.0518243 
4.16834 1.33303 1.27879 
7.10033 1.24284 1.32815 
5.68586 2.73512 2.71134 
5.70053 0.0331809 2.71276 
10.0216 1.31727 1.38573 
8.49047 2.62783 2.83669 
11.338 2.84742 2.81182 
11.4121 0.00310824 2.93804 
12.785 1.44747 1.58733 
15.7085 1.19051 1.40016 
14.3519 2.75727 2.93746 
14.2038 2.64786 0.0718098 
18.4906 1.43688 1.5711 
16.9285 2.74058 2.84006 
20.2557 2.93586 2.87343 
17.2733 2.88133 0.158852 
20.2322 2.88099 0.119009 
21.5118 1.30324 1.61264 
24.2504 1.33479 1.20391 
22.9687 2.79931 2.79181 
22.7506 0.034051 2.84092 
28.6453 0.0972712 2.73667 
28.5081 2.88911 2.88922 
27.1824 1.21902 1.21388 
25.9094 2.77913 2.77127 
25.8145 0.209576 2.80723 
1.46176 4.15634 1.50117 
1.46383 7.0183 1.41398 
2.82112 5.67875 2.82186 
0.0801476 5.62547 2.74315 
4.27287 4.32916 1.41411 
7.13833 4.22348 1.28381 
4.32248 7.09644 1.41381 
7.41099 7.18256 1.43456 
5.80288 5.6667 2.90824 
10.0103 4.25784 1.30445 
10.0629 7.27395 1.53743 
8.59494 5.57321 2.75385 
10.0724 7.05109 4.08645 
11.3533 5.69304 2.6955 
12.9381 4.45482 1.29953 
15.745 4.2145 1.44375 
12.899 7.12144 1.2069 
15.9582 7.14674 1.26037 
14.4531 5.63198 2.8645 
18.6635 4.35208 1.58978 
18.6525 7.21405 1.49089 
17.0554 5.57478 2.70439 
20.103 5.73166 2.86666 
17.261 5.63926 0.0112438 
20.0342 5.69953 0.160203 
21.5918 4.33816 1.45389 
21.5334 7.13848 1.56559 
23.0216 5.60207 2.93281 
24.2505 7.05287 1.40905 
24.3403 4.14785 1.29964 
27.1439 4.11962 1.30392 
27.1336 7.02645 1.43586 
25.7712 5.71071 2.89631 
1.62921 9.89512 1.23808 
2.86537 8.43602 2.99264 
2.97752 11.4973 2.98929 
0.105094 8.71219 2.93271 
0.105871 11.2699 2.6908 
0.114275 11.38 0.00447599 
2.88066 8.41785 0.000805454 
3.02444 11.5044 0.0186493 
4.33486 9.90793 1.54587 
7.04023 9.98288 1.44292 
5.65759 8.40424 2.75721 
5.68554 11.3475 2.89715 
5.87752 8.74044 0.0445189 
5.73816 11.3148 0.0121877 
10.0676 10.0178 1.3819 
8.6574 8.64425 2.71115 
11.3923 8.62943 2.81015 
8.57331 11.6336 2.84928 
11.3832 11.3536 2.68756 
8.57754 11.4729 0.0173835 
12.7449 9.99634 1.3973 
15.8027 10.0739 1.43071 
14.3602 8.59228 2.68712 
14.0853 11.3881 2.95819 
14.3762 8.8391 0.0228621 
18.7157 9.98681 1.20873 
17.3416 8.64183 2.80024 
20.0034 8.51124 2.96621 
17.2585 11.5906 2.72043 
20.0819 11.3823 2.82427 
20.1402 11.5103 0.0909661 
20.0315 8.53863 0.0554856 
21.6083 9.95395 1.49161 
24.5355 9.96157 1.35607 
23.0107 8.43692 3.03283 
22.9978 11.4337 2.97458 
23.06 8.62163 0.105163 
27.5149 9.86222 1.28956 
25.82 8.58822 2.7897 
25.9039 11.3989 2.98488 
1.47472 12.819 1.42155 
1.336 15.7142 1.34768 
2.84468 14.4725 2.86129 
0.0659099 14.2705 2.90447 
2.90559 14.3592 0.0152018 
4.425 12.9213 1.46537 
6.99611 12.6904 1.38798 
4.15963 15.9414 1.34767 
7.35752 15.9751 1.38425 
5.70634 14.4967 2.75455 
8.49738 14.3342 0.175122 
10.0241 12.9101 1.34872 
10.2372 15.8808 1.40183 
8.77914 14.3385 2.85408 
11.3773 14.1435 2.80439 
11.5951 14.6129 0.0539883 
12.9276 13.117 1.31805 
15.6932 12.8641 1.36966 
13.2043 15.7876 1.55136 
15.7528 15.635 1.56671 
14.2936 14.2646 3.02645 
14.4665 14.3504 0.0118501 
18.6806 12.7617 1.45398 
18.7159 15.7411 1.6098 
17.1633 14.3714 3.00378 
20.2253 14.349 2.90122 
17.2551 14.3598 0.0975036 
19.9662 14.3545 0.00599219 
21.5768 12.851 1.55017 
24.3971 12.8458 1.68908 
21.6112 15.7435 1.42749 
22.9527 14.3524 2.90039 
24.2326 15.7303 1.2853 
22.915 14.2047 0.125053 
27.3525 12.7104 1.47115 
27.4614 15.7066 1.49117 
25.9675 14.3312 2.90006 
25.9052 14.1296 0.110128 
1.39194 18.7153 1.19808 
1.43555 18.8522 4.09889 
2.89442 17.4112 2.65592 
2.78667 19.9266 2.48303 
0.207454 17.1456 2.83612 
4.28327 18.5766 1.00243 
7.14046 18.7744 1.31511 
5.65596 17.4205 2.82452 
5.76388 20.1348 2.85538 
11.6158 20.1414 0.120486 
10.0377 18.7145 1.37451 
8.60737 17.3349 2.6978 
11.297 17.0983 2.8399 
8.60512 19.9348 2.76102 
11.6247 19.9883 2.98311 
8.68976 20.0339 0.244322 
8.731 17.2952 0.0670305 
14.5713 17.3817 0.0902198 
12.9834 18.6649 1.53155 
15.9899 18.6611 1.50775 
14.5936 17.3256 2.82954 
14.3458 20.1008 2.78804 
14.3141 20.0761 0.150601 
17.3151 17.2876 0.176554 
18.6996 18.8638 1.34045 
17.3819 17.3675 3.10339 
20.1945 17.0096 2.85583 
17.3202 20.1001 2.96729 
20.2254 19.9646 2.87944 
20.3155 20.1375 0.0373589 
20.2287 17.1703 0.129396 
21.6581 18.6483 1.30592 
24.4572 18.6545 1.57363 
22.9564 17.2847 2.97944 
22.9344 20.1065 2.99924 
22.9791 17.2476 0.123856 
28.6435 19.9913 2.67845 
27.1581 18.6517 1.35075 
25.9823 17.0547 2.81996 
25.738 20.1268 2.90897 
1.34818 21.5346 1.22838 
1.35174 24.4739 1.5158 
1.28503 21.4467 4.08533 
2.8058 22.8969 2.81669 
4.31454 24.2121 1.30262 
4.25324 21.561 1.43483 
7.25582 21.5591 1.59443 
5.75973 22.939 2.77474 
7.33422 24.4331 1.42179 
11.542 23.0151 0.0789285 
10.074 21.5595 1.65016 
8.75398 22.9396 3.13582 
11.556 23.1125 3.14807 
10.1384 24.2536 1.53039 
8.73455 22.7902 0.0757954 
12.7985 21.5528 1.50806 
15.8333 21.5853 1.6203 
14.3491 22.9217 2.82343 
12.8917 24.4588 1.57842 
15.7591 24.3541 1.63067 
14.4647 23.2099 0.031139 
18.8257 21.4954 1.5982 
18.7613 24.3479 1.7189 
17.4781 22.8977 3.15378 
20.3099 22.7927 3.10225 
20.0692 23.0469 0.12875 
17.4497 23.0078 0.236064 
21.5564 21.389 1.55933 
24.3594 21.38 1.27252 
21.578 24.4591 1.4889 
22.9834 22.8138 2.91603 
24.3646 24.2816 1.58145 
28.6643 23.0259 2.75814 
27.4515 21.5532 1.27159 
27.1219 24.3852 1.54307 
25.9009 22.6887 2.59628 
2.61923 28.6114 2.84259 
1.36131 27.3107 1.28253 
2.86856 25.7533 2.82423 
4.23165 27.2675 1.33809 
7.33646 27.4151 1.34805 
5.89447 25.9332 2.73752 
5.72248 25.811 0.0874551 
8.51055 28.5901 2.97897 
11.551 28.6103 0.0556892 
9.98755 27.4234 1.57892 
8.7538 25.6898 2.80143 
11.376 25.8972 3.077 
14.1527 28.644 3.00058 
12.8425 27.0755 1.39961 
15.7789 27.1568 1.55783 
14.2957 25.8682 2.92342 
14.2907 25.8718 0.167951 
14.345 28.6039 0.0801325 
19.9504 28.6835 3.02215 
17.306 28.548 3.05826 
18.6985 27.2666 1.66025 
17.1601 25.7202 3.08499 
20.1148 25.8884 2.98344 
20.0003 28.6243 0.0276506 
17.3428 25.8524 0.0310043 
20.1776 25.8384 0.146686 
17.2288 28.4388 0.0578394 
21.5313 27.246 1.44152 
22.8584 25.8701 2.82698 
24.3915 27.5228 1.50626 
22.9775 28.4762 0.0289641 
22.9337 25.8311 0.0949342 
28.5504 25.8524 2.89334 
27.2346 27.2465 1.57346 
25.7569 25.8955 2.90032 
28.5264 25.7344 0.0120171 
25.6878 25.8352 0.116887 
1.35894 1.24622 4.2209 
4.09324 1.27731 4.33509 
1.32834 1.2752 7.01321 
2.81543 2.86283 5.83866 
6.99116 1.27379 4.2427 
4.15801 1.35011 7.10647 
7.17748 1.30567 6.94142 
5.63498 2.81499 5.67719 
9.96331 1.35158 4.3382 
10.0519 1.47962 7.08851 
8.40663 2.87245 5.65442 
11.5408 2.8197 5.69198 
12.8842 1.4366 4.43861 
15.6385 1.42574 4.21409 
12.8702 1.30135 7.25069 
15.7851 1.33075 7.30341 
14.1632 2.9334 5.79517 
14.155 0.112997 5.83686 
18.5284 1.40633 4.38198 
18.7388 1.36059 7.04997 
17.0428 2.76385 5.65458 
20.0442 2.97751 5.67271 
17.0338 0.0808082 5.81446 
21.6266 1.35049 4.41716 
24.2407 1.42394 4.31766 
21.5261 1.37255 7.30202 
24.4068 1.53282 7.09114 
22.9066 2.85003 5.76236 
23.0487 0.032358 5.84456 
27.1234 1.40665 4.30811 
28.64 2.77663 5.7014 
28.6861 0.0163666 5.6458 
27.3883 1.36421 7.25104 
25.931 2.83119 5.81363 
1.43139 4.13786 4.35138 
1.49647 7.07837 4.39604 
1.38958 4.20829 7.36241 
1.4068 7.26339 7.28874 
2.78771 5.69964 5.76392 
0.00364784 5.64312 5.60686 
7.11303 4.13599 4.1323 
4.30926 4.26938 4.22296 
4.2107 7.10004 4.33821 
7.29789 7.1581 4.31746 
4.26625 7.23171 7.11911 
4.30406 4.25381 7.04003 
7.07143 4.24016 7.01396 
5.66527 5.81841 5.73202 
7.22026 6.98412 7.02736 
9.96895 4.10312 4.22047 
9.97782 4.2667 7.03337 
8.60391 5.69894 5.6516 
9.98649 7.08543 7.11906 
11.4359 5.5007 5.63243 
15.7183 4.1669 4.26189 
12.9013 4.25754 4.18737 
12.8421 7.048 4.15307 
15.8445 7.26854 4.22148 
12.8833 4.25375 7.22451 
15.6794 4.31078 7.2803 
12.8285 7.06729 7.23109 
14.3736 5.63727 5.75942 
15.8069 7.20124 7.00556 
18.5797 4.21397 4.24875 
18.5458 7.15579 4.3695 
18.3578 4.32906 7.11657 
17.1559 5.60808 5.60049 
18.5274 7.19253 7.0059 
20.0387 5.65497 5.71552 
21.4683 4.26898 4.32922 
24.4777 4.25727 4.20898 
21.3549 7.21252 4.43469 
24.4014 7.21871 4.43189 
21.4283 4.23484 7.33403 
21.441 7.19595 7.23511 
22.6955 5.80981 5.67557 
24.297 7.18318 7.09886 
24.2784 4.58236 6.94509 
27.3176 4.50377 4.14841 
27.2135 7.24101 4.26999 
27.2933 4.24369 7.2236 
25.9485 5.7626 5.71299 
27.3809 7.10142 7.16022 
1.53208 10.0755 4.28235 
1.34658 10.1974 7.17442 
2.76681 8.78725 5.86995 
3.01257 11.4192 5.68877 
4.30577 9.73971 4.18539 
7.07698 9.99136 4.22673 
4.40011 10.0608 7.14124 
5.85286 8.69361 5.76409 
7.35148 10.0871 7.05255 
5.8834 11.5261 5.71368 
9.87701 9.93239 4.25661 
8.67299 8.38201 5.6735 
9.96379 9.96098 7.0193 
11.4721 8.33738 5.75377 
8.48417 11.4598 5.62297 
11.4123 11.3032 5.81379 
12.7746 9.8081 4.15969 
15.6208 10.0523 4.30248 
12.9997 9.9234 7.26615 
14.4311 8.54154 5.87086 
15.8196 9.99217 7.24924 
14.2165 11.3966 5.78708 
18.6319 10.0196 4.30075 
17.3945 8.60309 5.72389 
18.5232 10.1778 7.33193 
20.148 8.70282 5.85969 
17.155 11.3748 5.65696 
20.0095 11.5047 5.90464 
21.3178 10.1223 4.20534 
24.4524 9.95048 4.19199 
21.449 10.2229 7.18516 
22.8323 8.71512 5.60916 
22.947 11.3291 5.66943 
24.3795 10.0558 7.05728 
27.1811 9.87689 4.52098 
28.6559 11.3315 5.65999 
28.7097 8.57559 5.87475 
25.9056 8.49348 5.85123 
27.3332 9.99366 7.31457 
26.0217 11.4237 5.90404 
1.48387 12.8287 4.40485 
1.61508 15.8521 4.17804 
1.66087 12.8613 7.17512 
1.5255 15.8908 7.06536 
3.20292 14.3025 5.59134 
0.174831 14.2217 5.61296 
4.37613 13.0554 4.12612 
4.4099 15.9146 4.1639 
7.12515 13.117 4.25543 
7.38454 15.8774 4.19511 
4.45459 12.9374 7.00372 
7.28856 13.0078 7.13013 
4.37784 15.9252 7.01264 
5.76142 14.534 5.72178 
7.12504 15.6708 7.24174 
10.2772 12.8113 4.39363 
10.1036 15.8599 4.5267 
9.99361 12.9046 7.17742 
8.70461 14.5209 5.8024 
10.0384 16.0207 7.21355 
11.6666 14.398 5.75854 
12.7763 12.9286 4.47825 
15.557 12.565 4.47194 
13.0334 16.0394 4.16223 
15.8648 15.7335 4.24744 
12.8493 12.9553 7.21519 
15.8084 12.9855 7.22042 
13.0363 15.7199 7.35501 
14.1904 14.3536 5.82123 
15.9315 15.8195 7.12149 
18.5509 12.7865 4.35871 
18.7631 15.7287 4.44855 
18.5132 12.9057 7.20653 
17.1569 14.3031 5.81283 
18.638 15.6857 7.28363 
20.0144 14.155 5.91038 
21.5961 13.0166 4.47547 
21.542 15.772 4.4498 
24.4815 12.7081 4.34582 
24.5446 15.7397 4.22852 
21.797 13.0116 7.24248 
24.5478 12.8977 7.18537 
21.3731 15.7646 7.13323 
23.1976 14.3733 5.82975 
24.4508 15.8851 7.1744 
27.4046 12.7472 4.38087 
27.5176 15.8456 4.39799 
27.3964 12.8637 7.20716 
25.8484 14.4541 5.71312 
27.4424 15.8759 7.19757 
1.64921 18.4444 7.12271 
2.92975 17.4996 5.41097 
2.7529 20.1478 5.55312 
0.0774558 19.9348 5.82439 
0.114831 17.4112 5.36004 
4.3383 18.7882 4.30392 
7.16634 18.6559 4.16219 
4.28856 18.7059 7.06571 
5.82318 17.1994 5.76086 
7.15968 18.5717 7.0156 
5.69253 20.0787 5.69423 
10.1298 18.8024 4.3982 
8.59497 17.4284 5.6605 
10.0839 18.7616 7.26664 
11.6033 17.2808 5.83168 
8.5932 20.0929 5.75489 
11.6226 20.0803 5.69706 
13.0063 18.5596 4.25816 
15.8163 18.6442 4.44145 
12.9395 18.5312 7.23392 
14.3979 17.2126 5.85484 
15.8174 18.6921 7.26379 
14.3831 20.1178 5.97433 
18.7796 18.4354 4.563 
17.2101 17.2171 5.95436 
18.4723 18.6275 7.35192 
20.0562 17.1599 5.9708 
17.3043 19.8153 5.83684 
20.0577 19.9739 5.64858 
21.6302 18.432 4.31431 
24.4507 18.5364 4.24866 
21.4056 18.7021 7.2603 
23.0668 17.1763 5.88342 
24.1936 18.7312 7.2388 
22.8687 19.9839 5.80939 
27.2165 18.9073 4.28693 
25.9583 17.4519 5.86773 
27.4103 18.7043 7.34101 
25.8234 20.0146 5.81053 
1.43103 24.4105 4.27613 
1.37122 21.3016 7.05271 
2.72858 22.9503 5.66284 
1.29595 24.4248 7.20777 
4.21818 21.5533 4.10912 
7.22892 21.5131 4.26747 
7.11747 24.1566 4.24615 
4.24359 24.3396 4.19891 
4.11515 21.6032 7.10039 
7.065 21.6081 7.157 
4.2939 24.327 7.13872 
5.67323 23.0455 5.70668 
7.23226 24.3658 7.05673 
10.178 21.1919 4.25934 
10.1937 24.3804 4.44796 
10.1127 21.5198 6.98184 
8.68735 22.8612 5.6715 
10.1664 24.3721 7.29613 
11.768 22.9628 5.85357 
13.0245 21.4055 4.30128 
15.6352 21.4184 4.43688 
15.6729 24.305 4.33495 
12.9613 24.3672 4.4513 
12.8802 21.4391 7.25779 
15.9053 21.5115 7.13235 
14.3581 23.0049 5.98587 
15.8257 24.4387 7.42968 
12.9348 24.3369 7.47271 
18.7442 21.4467 4.39055 
18.8351 24.4025 4.41946 
18.716 21.557 7.30545 
17.1959 22.9899 5.79229 
18.7854 24.4204 7.04317 
20.1072 22.8735 5.71721 
21.5665 21.365 4.39658 
24.3959 21.6532 4.34659 
21.5782 24.2034 4.29002 
24.3317 24.4276 4.33272 
21.3092 21.4638 7.06673 
21.7049 24.3461 6.92375 
22.9502 22.9415 5.88432 
24.4974 21.5331 7.20764 
24.2845 24.3793 7.26128 
27.3949 21.618 4.14558 
27.1517 24.3242 4.14711 
28.707 22.8366 5.7288 
27.2113 21.5418 6.9972 
25.8475 23.0075 5.73352 
27.1742 24.4146 7.33435 
1.37907 27.2859 4.15169 
2.79871 28.6495 5.85442 
1.37939 27.0135 7.30816 
2.7919 25.6753 5.91799 
4.2133 27.179 4.25264 
7.19505 27.0205 4.31488 
5.73593 28.5692 5.82089 
4.29399 27.2634 7.13574 
5.76441 25.5137 5.64784 
7.17948 27.1972 7.07306 
10.1471 27.1451 4.62949 
8.57862 28.7053 5.67509 
11.4455 28.668 5.84104 
8.56402 25.7549 5.68354 
10.0662 27.2448 7.29898 
11.5871 25.7142 6.06259 
12.7725 27.4058 4.46846 
15.6774 27.4448 4.54 
12.7177 27.3851 7.26301 
14.1664 25.8734 5.81176 
15.7252 27.2683 7.27188 
18.4165 26.9998 4.63385 
20.2506 28.5551 5.70943 
16.9458 25.6881 5.87926 
18.7656 27.1744 6.95927 
20.267 25.6913 5.73603 
21.5597 27.1514 4.3866 
24.4385 27.5124 4.23033 
21.505 27.229 7.34702 
23.1484 25.8906 5.73217 
24.3942 27.2282 7.24394 
27.3384 27.4826 4.26881 
25.6873 28.6449 5.78866 
28.6834 25.9283 5.58332 
25.8728 25.9215 5.75353 
27.3082 27.2322 7.16476 
2.793 2.65654 8.52697 
2.66407 0.0370181 8.59802 
1.34897 1.35848 9.97613 
2.8816 2.80435 11.3204 
3.05046 0.0149997 11.4849 
0.0128593 3.05249 11.3392 
5.74115 2.77672 8.44772 
5.85444 0.0260173 8.39528 
4.28693 1.31455 10.0044 
7.15073 1.49394 9.95722 
5.72348 2.80338 11.225 
8.59426 2.84494 8.53514 
11.404 2.78047 8.50143 
11.3299 0.0173997 8.64525 
8.55766 0.0888301 8.43014 
8.59686 0.104978 11.318 
9.91894 1.38735 9.9264 
8.54801 2.77242 11.608 
11.3653 2.74467 11.5026 
14.1527 2.75875 8.56654 
14.3363 0.0112851 8.67591 
12.7903 1.24497 10.1016 
15.5865 1.30815 10.0305 
14.2609 2.73225 11.3834 
17.2301 2.79311 8.397 
19.6957 2.9373 8.61163 
19.9249 0.0522258 8.41039 
18.3724 1.41692 9.9611 
17.1695 2.71781 11.6563 
19.9046 2.73356 11.4828 
22.9458 2.94444 8.76351 
23.0385 0.00858296 8.72583 
21.4693 1.56712 9.86901 
24.3805 1.32885 10.0306 
22.9431 2.79807 11.3253 
28.6969 2.9215 8.76025 
25.7291 2.85864 8.58774 
28.6238 0.0721115 11.5273 
27.0927 1.62961 10.2117 
25.7033 3.00272 11.4423 
2.96103 5.76875 8.44128 
1.55707 4.28404 10.0203 
1.50858 7.04588 9.96361 
2.83433 5.75323 11.3584 
0.0811897 5.85075 11.4738 
5.72043 5.77302 8.45004 
4.41308 4.34923 9.78499 
4.5386 7.1646 9.98003 
7.16765 4.27015 9.96616 
7.10196 7.19776 10.0265 
5.58663 5.6692 11.3042 
8.44029 5.71816 8.66154 
11.4969 5.7301 8.71855 
10.1997 4.21773 10.1573 
9.8822 7.21921 9.92344 
8.59145 5.7672 11.5185 
11.4625 5.57207 11.4045 
14.2104 5.78158 8.50062 
15.6842 4.40543 10.0525 
12.8797 4.16648 10.0469 
12.8283 7.05776 10.1751 
15.8354 7.18638 10.2845 
14.3074 5.68886 11.4649 
17.1308 5.86021 8.49966 
20.0326 5.70928 8.31208 
18.3869 4.34462 10.1115 
18.5897 7.18052 10.0874 
17.1767 5.6341 11.5321 
19.9774 5.66973 11.3796 
22.7309 5.70187 8.64288 
21.2454 4.23989 10.086 
21.2772 7.17766 10.0587 
22.7173 5.55869 11.3752 
24.2542 6.96157 9.95664 
24.3144 4.43166 9.89295 
28.7117 5.71707 8.68428 
25.7145 5.78013 8.46555 
27.0659 4.33088 10.0174 
27.3351 7.11316 10.0909 
25.8136 5.75088 11.4827 
2.82197 8.60503 8.47182 
2.89731 11.4379 8.66496 
1.44028 9.94482 10.0954 
2.96872 8.56023 11.4845 
2.68793 11.3884 11.3674 
0.00154436 11.4565 11.5255 
0.104361 8.50965 11.3605 
5.95888 8.72624 8.52794 
5.78498 11.4706 8.56502 
4.34557 10.0241 9.98528 
7.23797 10.323 9.94831 
5.76305 8.64043 11.4757 
5.61746 11.447 11.4348 
8.52808 8.77614 8.52899 
11.3352 8.80727 8.42831 
8.6744 11.5788 8.55809 
11.4348 11.5563 8.49311 
10.2402 10.1402 10.0661 
8.77323 8.73891 11.3095 
11.4401 8.52915 11.349 
8.70816 11.3205 11.5647 
11.719 11.5493 11.3381 
14.3362 8.4895 8.7717 
14.3418 11.5463 8.47327 
12.8612 10.0339 9.94087 
15.7191 10.0627 10.118 
14.2257 8.3958 11.6036 
14.354 11.5583 11.4945 
17.1621 8.62714 8.67475 
19.824 8.68375 8.51565 
17.1112 11.5914 8.64399 
20.1524 11.6309 8.61577 
18.6054 10.0031 9.81104 
17.3922 8.77446 11.5325 
20.0027 8.59763 11.3843 
17.2766 11.5226 11.4416 
20.022 11.4409 11.492 
22.7808 8.60548 8.53694 
23.114 11.4081 8.71911 
21.6508 10.1802 9.9997 
22.9695 8.68412 11.2656 
22.9894 11.5882 11.3897 
24.4311 10.1222 10.0044 
28.6488 11.5035 8.5266 
28.6785 8.57927 8.76317 
25.8152 8.49026 8.47909 
25.8116 11.3763 8.58273 
27.3321 9.93715 10.1427 
25.8299 8.65396 11.177 
25.8834 11.4597 11.4378 
2.87561 14.4294 8.62899 
1.40792 12.8603 9.95813 
1.35741 15.7747 10.1169 
2.87964 14.5122 11.4247 
0.105897 14.4377 11.5967 
5.80494 14.3761 8.51711 
4.40243 13.0795 9.99462 
7.24261 12.7954 9.99888 
4.38631 15.9398 9.93644 
7.21604 15.7776 10.0542 
6.0564 14.408 11.4283 
8.59234 14.4333 8.49895 
11.4536 14.3591 8.55715 
10.2175 12.7895 10.11 
10.1502 15.8331 10.0051 
8.86921 14.3829 11.4669 
11.6503 14.2671 11.543 
14.4775 14.2373 8.52503 
13.0985 12.9106 10.007 
15.7736 12.9458 10.0115 
12.9225 15.8785 9.93185 
15.8389 15.5892 10.0954 
14.4133 14.3204 11.5683 
17.3105 14.4813 8.68133 
20.0633 14.3369 8.76059 
18.8679 12.9633 10.077 
18.7424 15.95 10.0249 
17.2328 14.3743 11.5183 
20.2131 14.4383 11.5821 
23.0432 14.4395 8.73256 
21.639 12.9316 9.97425 
21.5004 15.8974 10.0855 
22.9556 14.3345 11.5874 
24.524 13.0784 9.99494 
28.7078 14.3546 8.66857 
25.9776 14.3297 8.47765 
24.658 16.0222 10.096 
27.0977 12.7854 9.91458 
27.087 16.0212 10.1332 
25.9678 14.3458 11.4742 
2.91419 17.1931 8.70637 
2.87881 20.1056 8.71108 
0.204518 17.425 8.76521 
0.00436144 20.2593 8.6891 
1.43797 18.8049 10.0078 
2.79511 17.2374 11.6495 
2.8858 20.0406 11.5403 
5.814 17.1961 8.60551 
5.83034 19.9288 8.63994 
4.38469 18.5881 10.1562 
7.37131 18.6362 10.1082 
5.95076 17.1193 11.4093 
5.63073 20.1628 11.4593 
8.49551 17.3727 8.50021 
11.5712 17.1875 8.63441 
8.63529 20.4199 8.5572 
11.3007 20.1388 8.61908 
9.96147 18.6337 10.0881 
8.62086 17.2166 11.6595 
11.6284 17.2385 11.4942 
8.75674 20.1354 11.3619 
11.5245 20.0085 11.5791 
14.4707 17.1451 8.73369 
14.3105 19.9618 8.7089 
12.7883 18.6607 10.0664 
15.9046 18.7071 10.2016 
14.1728 17.1414 11.3618 
14.3385 19.9184 11.3498 
17.1347 17.1798 8.87587 
20.1517 17.3975 8.6694 
17.3169 20.0286 8.69905 
20.0759 19.984 8.60112 
18.7642 18.6091 10.1209 
17.4113 17.2115 11.5403 
20.1491 17.1934 11.5825 
17.2168 20.2758 11.4781 
20.0592 20.2657 11.5989 
22.9821 17.2703 8.63756 
23.0052 20.3028 8.62987 
21.6417 18.7653 10.0777 
23.0723 17.2527 11.4712 
22.8781 20.1365 11.6667 
24.5078 18.7062 9.97873 
25.9648 17.4004 8.56681 
25.8262 20.0221 8.53354 
28.5593 20.0947 11.5808 
28.6947 17.3412 11.448 
27.2826 18.6703 10.0917 
25.7875 17.44 11.8479 
25.8288 20.2018 11.4287 
2.73854 22.9935 8.64612 
1.26847 24.4061 10.1154 
1.20025 21.6806 10.0908 
2.75076 23.0711 11.4859 
5.84345 22.9006 8.48916 
4.22698 24.4678 10.1704 
7.09929 24.4866 10.0475 
4.23988 21.6317 9.98348 
7.13005 21.4636 9.99257 
5.58431 23.036 11.3128 
8.52045 23.0372 8.60635 
11.3972 23.0647 8.50397 
9.99667 24.2791 10.0684 
10.1683 21.6039 10.1375 
8.37111 22.9858 11.5017 
11.6965 22.8956 11.4024 
14.3605 23.0102 8.68476 
12.9451 21.5228 10.173 
15.8209 21.4874 9.87966 
12.9703 24.4162 10.1723 
15.7951 24.5837 10.1882 
14.4981 23.0393 11.4074 
17.2727 23.0602 8.64523 
20.1156 23.1037 8.54098 
17.2221 23.1521 11.3889 
20.2859 23.3074 11.3812 
18.6664 24.4967 10.1459 
18.5877 21.7299 10.0534 
22.7762 22.9671 8.61872 
24.3164 21.4881 10.1674 
21.6147 24.4761 9.8828 
24.2206 24.2613 10.187 
21.3177 21.5451 9.98747 
22.783 22.9949 11.5163 
28.5943 22.9913 8.51879 
25.697 22.9693 8.61254 
27.2346 21.5445 10.1744 
27.1293 24.4267 9.95688 
25.6312 22.9679 11.6774 
28.5449 23.05 11.6569 
3.05507 25.9365 8.63607 
1.38799 27.3013 10.0879 
2.90376 25.9546 11.3598 
5.74703 25.9055 8.5448 
5.76535 28.6142 11.3848 
5.67414 25.9547 11.5323 
7.30408 27.4077 10.092 
4.32082 27.3809 10.0727 
8.45915 25.7182 8.5899 
11.3589 25.7738 8.82277 
11.5307 25.8933 11.518 
8.71472 25.7771 11.4999 
9.97633 27.3515 10.0798 
11.607 28.6664 11.5951 
14.3085 25.8887 8.6138 
14.469 28.6027 11.4739 
14.367 25.8036 11.5598 
15.8783 27.3188 9.98072 
12.763 27.3 9.98437 
17.1737 28.5961 8.4509 
17.2228 25.8513 8.62634 
19.967 25.953 8.54818 
17.2778 28.442 11.5188 
17.2576 25.7764 11.7151 
18.5845 27.287 9.91279 
20.0206 25.7453 11.5755 
20.1322 28.5533 11.2604 
22.9891 25.8474 8.5813 
21.5677 27.0934 10.0711 
24.3477 27.1554 10.0868 
22.9127 25.7098 11.6159 
22.7262 28.6302 11.391 
28.6607 28.5993 8.71428 
28.6441 25.916 8.77073 
25.695 28.6506 8.65015 
25.7359 25.7711 8.59492 
25.8316 28.6207 11.5069 
27.1131 27.3134 10.0957 
25.6336 25.7194 11.4401 
28.5628 25.7373 11.4048 
1.47052 1.43731 12.9783 
0.0157463 3.02535 14.3222 
2.76454 0.0466423 14.295 
1.50771 1.45133 15.837 
2.88103 2.9348 14.4727 
4.23269 1.52581 13.0303 
7.10438 1.25315 12.9046 
4.60154 1.48409 15.7999 
7.18906 1.36717 15.6622 
5.85674 2.92429 14.38 
10.1307 1.35459 12.8926 
11.5821 2.74861 14.2607 
8.70514 3.13805 14.2799 
8.75988 0.0579044 14.311 
11.4782 0.0197687 14.2379 
10.0971 1.49465 15.7539 
12.9359 1.38741 12.9827 
15.7544 1.43705 13.0555 
14.3768 2.99921 14.3446 
12.9196 1.51007 15.8372 
15.682 1.50728 15.9179 
14.3694 0.0961836 14.5896 
18.7352 1.47032 12.9411 
17.2608 2.83488 14.1936 
18.6056 1.67568 15.9681 
17.3817 0.0525949 14.5974 
19.9805 2.81796 14.4546 
19.9547 0.141047 14.5718 
21.3397 1.53002 12.8684 
24.3205 1.22871 12.6574 
22.8759 0.113055 14.3149 
21.5932 1.4885 15.9386 
24.3293 1.43496 15.582 
23.0074 2.98256 14.4663 
27.1528 1.62216 12.8449 
25.7538 2.89268 14.1275 
25.9313 0.0194332 14.3003 
27.2701 1.67989 15.4974 
1.55189 4.26258 12.7992 
1.58634 7.12254 12.861 
2.88166 5.71184 14.2084 
0.0731651 5.67551 14.2734 
1.43996 4.29746 15.8449 
1.31874 7.15564 15.5907 
4.351 4.23821 12.8956 
7.04522 4.30658 12.662 
4.27109 7.27043 12.8792 
7.07665 7.21257 12.8199 
5.63178 5.8197 14.2188 
7.20884 4.37396 15.633 
4.33916 4.31031 15.6852 
4.22926 7.06469 15.745 
7.13856 7.25661 15.8708 
10.0716 4.56826 12.8043 
10.0959 7.27952 12.908 
8.55281 5.84726 14.2272 
10.1554 4.34911 15.71 
10.1044 7.22433 15.7963 
11.6317 5.67836 14.4377 
12.9847 4.16576 12.8497 
15.618 4.37608 12.9066 
12.8531 7.09964 12.9805 
16.006 7.15288 12.9072 
14.3714 5.83121 14.2975 
12.9092 4.36151 15.8173 
15.7827 4.36336 15.7722 
12.8271 7.29201 15.8751 
15.7268 7.03719 15.7586 
18.5293 4.16017 12.8751 
18.6458 7.26288 12.8507 
20.0807 5.80423 14.2859 
18.7409 4.38254 15.7853 
18.6842 7.04904 15.8077 
17.3432 5.75233 14.3912 
24.2126 4.19843 12.7373 
21.4164 4.25057 12.8504 
21.5283 7.1585 12.6988 
24.1338 7.19755 12.8391 
22.9319 5.58438 14.2446 
21.4319 4.18434 15.7026 
21.4553 7.19192 15.7176 
24.3567 7.20622 15.7549 
24.572 4.23908 15.6779 
27.1713 4.32121 12.7785 
27.197 7.33964 12.8861 
25.7071 5.73726 14.1798 
27.1195 4.38959 15.6237 
27.3063 7.19178 15.8813 
1.32973 10.0959 12.897 
2.80573 8.61001 14.3489 
0.0946879 11.3289 14.3511 
0.0977874 8.50209 14.3453 
1.39849 9.98997 15.9153 
2.69601 11.5062 14.5393 
4.27604 9.96131 13.0858 
7.07464 9.93224 12.8574 
4.41094 10.039 15.9512 
7.23713 10.0231 15.8793 
5.63986 11.2847 14.4604 
5.56439 8.51738 14.5847 
10.1477 9.88788 12.8931 
8.54707 8.58112 14.3185 
8.58943 11.3896 14.3519 
10.0818 9.86727 15.8203 
11.6248 11.3224 14.4079 
11.4373 8.6218 14.4482 
12.7432 10.0287 12.8648 
15.7862 9.9382 13.0053 
14.3461 8.55066 14.2642 
12.9569 10.0604 15.9583 
15.506 9.91401 15.8851 
14.2084 11.4626 14.3973 
18.6675 9.98606 13.0314 
19.9877 8.62153 14.3649 
17.1866 8.60129 14.5219 
18.4303 10.0362 15.9352 
20.0314 11.4196 14.4971 
17.1356 11.2337 14.4547 
21.5492 10.0918 12.8225 
24.4538 9.86434 12.9612 
22.834 8.45827 14.2679 
21.3728 9.90708 15.8401 
24.3295 10.0892 15.8559 
22.9229 11.4461 14.4894 
27.3285 9.84806 12.9986 
27.2178 9.96394 15.5229 
25.7728 8.49455 14.4538 
25.9227 11.3356 14.3661 
1.66993 12.9978 12.7189 
1.47816 15.907 13.0246 
2.86753 14.4001 14.3121 
0.0436121 14.2712 14.2555 
1.385 12.9524 15.7638 
1.54881 15.7631 15.9067 
4.3681 13.0666 12.9653 
7.19187 12.762 12.9437 
4.49631 15.9058 13.1239 
7.35389 15.6695 13.0001 
5.7177 14.1476 14.4072 
4.35701 13.0782 15.7458 
7.14009 12.9722 15.8405 
4.33101 15.8076 15.916 
7.13986 15.7799 15.7602 
9.91552 12.6659 12.9233 
10.1466 15.7189 13.0084 
11.3343 14.2241 14.2703 
8.75238 14.217 14.3505 
10.2204 12.7689 15.8873 
10.0726 15.7951 15.8254 
13.1164 12.8604 13.1188 
15.9173 12.7781 13.0295 
12.831 15.9283 12.9285 
15.8209 15.6767 13.0376 
14.3029 14.4225 14.3329 
12.6352 12.921 15.8171 
15.6771 12.7404 15.8253 
12.8089 15.7915 15.885 
15.7556 15.8885 15.7341 
18.5142 12.7327 13.0277 
18.6686 15.724 13.1594 
18.6628 12.9569 15.9477 
18.5952 15.6566 15.6671 
17.0899 14.4075 14.5116 
20.1601 14.0205 14.4027 
21.5404 12.7221 13.0342 
21.5576 15.5755 13.1513 
24.4642 12.8748 12.8502 
24.3967 15.6856 12.7561 
21.4503 12.77 16.1579 
24.3884 12.9904 15.7815 
21.4802 15.7439 15.8428 
24.295 15.8912 15.7062 
22.8814 14.0909 14.4935 
27.3217 12.9129 12.7866 
27.39 15.8105 12.8877 
25.8418 14.3085 14.2249 
27.3773 12.8135 15.6542 
27.2232 15.5878 15.7689 
1.26948 18.6177 13.0036 
2.96853 17.374 14.4331 
1.3914 18.5727 15.7613 
2.75349 19.9342 14.3844 
4.39596 18.7031 12.933 
7.2696 18.6436 12.9028 
5.75964 20.2314 14.2637 
4.30816 18.7085 15.8726 
7.12351 18.9053 15.9461 
5.82975 17.3472 14.4543 
10.1132 18.6827 12.9283 
8.52367 20.0564 14.2789 
11.5958 19.9876 14.3504 
9.88228 18.7159 15.9563 
11.4284 17.2339 14.4402 
8.6869 17.1887 14.4509 
12.8507 18.5028 13.051 
15.7625 18.4787 12.4681 
14.1235 20.1408 14.2 
14.4174 17.4301 14.3438 
16.3983 19.6582 14.3433 
12.964 18.505 15.9004 
15.7786 18.6239 16.1954 
18.6837 18.7466 13.004 
20.2403 20.1595 14.2561 
17.2336 17.2803 14.3206 
18.818 18.5037 15.8791 
20.1046 17.0594 14.4798 
21.6287 18.7058 12.8116 
24.3749 18.6969 13.0319 
23.0992 17.1687 14.2852 
21.441 18.6533 15.8064 
24.3381 18.967 15.6586 
22.8799 19.8621 14.4128 
27.3064 18.6569 13.0664 
27.1944 18.8287 15.764 
25.6403 17.2896 14.3971 
25.7091 20.2265 14.3699 
28.6667 20.1962 14.3633 
28.6929 17.2398 14.5247 
1.50838 21.4808 12.7888 
1.41502 24.3171 12.9428 
2.84436 22.9457 14.3201 
0.0118865 22.9381 14.304 
1.52357 21.5136 15.5328 
1.41956 24.464 15.8613 
4.1796 21.5538 12.8045 
6.96974 21.561 12.8055 
4.11018 24.5525 12.8471 
6.99484 24.5317 12.8876 
5.54545 22.9185 14.1013 
4.26007 21.5741 15.745 
7.07612 21.6937 15.8781 
4.31161 24.3708 15.7001 
7.05282 24.5325 15.6049 
8.30244 22.9164 14.3107 
9.98122 21.5549 12.9079 
10.0776 24.3009 12.7608 
9.88635 21.5395 15.6869 
10.0661 24.4475 15.6711 
11.4201 22.8383 14.4815 
12.8664 21.5015 12.8724 
15.7333 21.6062 12.9699 
12.8457 24.4303 13.001 
15.7138 24.4392 13.1631 
14.2427 22.8942 14.2209 
13.0509 21.2794 15.9545 
15.8782 21.2929 15.7164 
15.7281 24.3851 15.8984 
12.9854 24.3907 15.8313 
18.5595 24.4825 13.0516 
18.1651 20.684 14.3382 
18.7697 21.8898 12.6773 
17.0868 22.8934 14.3301 
19.9223 23.0739 14.3699 
18.8897 21.7284 16.0383 
18.5803 24.4657 15.7723 
21.5973 21.6685 13.0828 
24.2335 21.5942 13.0651 
21.4587 21.8183 15.9041 
24.1538 21.5492 16.0171 
21.4269 24.6063 15.8709 
24.2895 24.5148 16.0652 
23.0319 23.1345 14.4659 
27.2229 21.613 12.9191 
27.2355 24.5652 13.105 
25.9871 23.119 14.4208 
27.2685 21.6766 15.7972 
27.2512 24.5456 16.0269 
1.38031 27.1859 12.6771 
2.72086 25.762 14.3248 
1.56696 27.3044 15.5872 
7.28704 27.1288 13.0898 
4.18393 27.3196 12.9596 
5.52226 25.8298 14.2214 
5.72088 28.4995 14.2675 
4.32631 27.358 15.6352 
7.22995 27.3477 15.7102 
10.0965 27.272 12.9416 
8.6851 25.8595 14.3334 
11.4982 25.8231 14.341 
10.0634 27.4798 15.8218 
15.7734 27.2278 13.053 
12.9883 27.2355 13.068 
13.0652 27.2321 15.8858 
15.8044 27.2514 15.7303 
14.3184 25.7835 14.4893 
18.8249 27.3846 12.9507 
20.1692 25.9913 14.3461 
18.6611 27.2219 15.8344 
17.294 25.9138 14.5147 
24.37 27.1822 12.8554 
21.573 27.4185 12.9817 
24.3058 24.6487 13.1067 
21.4799 24.6211 13.0305 
21.496 27.5188 15.8869 
24.4494 27.3927 15.8455 
22.8959 25.8833 14.5606 
27.1519 27.1104 12.795 
28.6763 25.9901 14.3523 
28.6901 28.6993 14.0247 
27.2739 27.394 15.617 
25.8895 25.908 14.5213 
1.43211 1.2596 18.4189 
2.9802 2.74039 17.2141 
0.0439234 2.81187 17.1128 
2.82759 2.95705 19.9444 
0.153515 2.93069 20.0368 
2.9992 0.137088 19.9077 
4.36584 1.3793 18.732 
7.29693 1.40026 18.9537 
5.85793 3.04372 17.4479 
5.84959 3.09661 20.1554 
5.63145 0.0181254 20.1965 
10.1099 1.26334 18.6707 
8.42007 2.83409 17.2889 
11.4506 2.83102 17.0558 
8.60369 0.0848818 17.2679 
8.65583 3.15384 20.1457 
11.3543 2.87109 20.1154 
8.54144 0.118437 20.238 
13.0107 1.47587 18.534 
15.8833 1.42711 18.5262 
14.3711 3.0567 17.1087 
14.4303 2.81164 20.0556 
18.6149 1.41792 18.7432 
17.1851 3.13519 17.2117 
19.9645 3.02463 17.2001 
19.97 0.109314 17.2494 
17.1554 2.84741 20.0016 
20.1245 2.89161 20.092 
17.1717 0.0740695 20.1818 
21.5215 1.42815 18.7062 
22.9299 2.99303 17.2231 
24.4945 1.5329 18.6453 
23.0406 0.136377 17.4115 
22.978 2.92282 20.022 
23.1092 0.143428 20.1538 
27.3333 1.60821 18.697 
25.8337 3.10329 17.3145 
28.659 0.104701 17.2295 
25.8564 0.403809 17.2275 
25.8006 3.12155 20.241 
25.9293 0.194055 20.1543 
1.35449 4.30693 18.4923 
1.47917 7.19727 18.8332 
2.79022 5.80558 17.1355 
2.75959 5.75161 20.0654 
0.0546858 5.81857 20.3096 