ITEM: TIMESTEP
1042
ITEM: NUMBER OF ATOMS
2001
ITEM: BOX BOUNDS pp pp pp
0.0000000000000000e+00 2.8712000000000000e+01
0.0000000000000000e+00 2.8712000000000000e+01
0.0000000000000000e+00 2.8712000000000000e+01
ITEM: ATOMS x y z c_cna 
1.4357 1.43539 1.43526 3 
0.000218313 2.86992 2.86978 3 
2.87118 2.86986 2.86977 3 
0.000181493 0.000958034 0.000810129 3 
0.000104109 4.90417e-05 2.8707 3 
2.87117 0.000857027 0.000759912 3 
4.30698 1.43532 1.43524 3 
7.17837 1.43527 1.43529 3 
5.74239 2.86985 2.86984 3 
5.74245 0.000736233 0.000720714 3 
10.0496 1.43527 1.43537 3 
8.61384 2.86999 2.87004 3 
11.4851 2.87014 2.87021 3 
11.4852 0.000431895 0.000544988 3 
8.61389 0.000535893 0.000608082 3 
12.9207 1.43531 1.43543 3 
15.7915 1.43539 1.43546 3 
14.3561 2.87025 2.87035 3 
14.3561 0.000432242 0.000513336 3 
18.6624 1.43546 1.43544 3 
17.2269 2.87032 2.87035 3 
20.098 2.87029 2.87024 3 
17.227 0.000527729 0.000554159 3 
20.098 0.000669799 0.000615816 3 
21.5335 1.43549 1.43541 3 
24.4049 1.4355 1.43538 3 
22.9693 2.87018 2.87008 3 
22.9693 0.0008503 0.000713481 3 
27.2764 1.43547 1.43531 3 
25.8409 2.87002 2.86989 3 
25.8409 0.000969673 0.000838059 3 
25.8406 4.90779e-05 2.87082 3 
1.43569 4.30539 1.43446 3 
1.43568 7.1761 1.43419 3 
0.00047594 5.74025 2.86914 3 
2.87089 5.74023 2.86913 3 
4.30677 4.30537 1.43445 3 
7.17817 4.30555 1.43452 3 
4.30642 7.17607 1.43416 3 
7.17769 7.17621 1.43422 3 
5.74173 5.74011 2.86903 3 
10.0496 4.3058 1.43463 3 
10.0493 7.17673 1.43441 3 
8.61335 5.74043 2.86928 3 
11.4849 5.74086 2.86956 3 
12.9206 4.30603 1.43472 3 
15.7915 4.30616 1.43475 3 
12.9205 7.1772 1.43453 3 
15.7915 7.17739 1.43456 3 
14.356 5.74115 2.86972 3 
18.6624 4.30614 1.43474 3 
18.6625 7.17724 1.43451 3 
17.227 5.74116 2.86972 3 
20.0982 5.74096 2.86956 3 
21.5336 4.30596 1.43467 3 
24.405 4.30569 1.43459 3 
21.5338 7.17684 1.43441 3 
22.9698 5.74056 2.86929 3 
24.4055 7.17631 1.43426 3 
27.2766 4.30549 1.4345 3 
27.2769 7.17612 1.43422 3 
25.8415 5.7402 2.86905 3 
1.43565 10.0475 1.43436 3 
0.000611514 8.61152 2.86902 3 
2.8707 8.61148 2.86903 3 
2.87063 11.4833 2.8693 3 
0.000649521 11.4833 2.8693 3 
4.30616 10.0475 1.43437 3 
7.17732 10.0476 1.43444 3 
5.74122 8.61133 2.86885 3 
5.74108 11.4833 2.86917 3 
10.0489 10.048 1.43459 3 
8.61268 8.61146 2.86903 3 
11.4845 8.61215 2.86954 3 
8.61244 11.4833 2.86942 3 
11.4842 11.4837 2.86999 3 
12.9204 10.0487 1.43474 3 
15.7915 10.049 1.43477 3 
14.3559 8.61266 2.86981 3 
14.3558 11.4843 2.87041 3 
18.6626 10.0487 1.43471 3 
17.2271 8.61267 2.86977 3 
20.0985 8.61221 2.86949 3 
17.2272 11.4843 2.87036 3 
20.0989 11.4837 2.86991 3 
21.5342 10.0481 1.43458 3 
24.4059 10.0476 1.43446 3 
22.9704 8.61153 2.869 3 
22.9707 11.4833 2.86937 3 
27.2771 10.0475 1.4344 3 
25.842 8.6114 2.86887 3 
25.8421 11.4833 2.86916 3 
25.8417 11.4834 2.36278e-05 3 
1.43567 12.9193 1.43479 3 
0.000581958 14.3552 0.000373139 3 
1.43567 15.7914 1.4353 3 
0.000629648 14.3554 2.86975 3 
2.87065 14.3554 2.86977 3 
2.87074 14.3552 0.000340364 3 
4.30603 12.9193 1.4348 3 
7.17716 12.9194 1.43489 3 
4.30601 15.7914 1.4353 3 
7.17713 15.7913 1.43535 3 
5.74115 14.3554 2.86966 3 
5.74137 14.3552 0.000477629 3 
10.0488 12.9196 1.435 3 
10.0488 15.7913 1.43539 3 
8.61256 14.3554 2.86995 3 
11.4842 14.3553 2.87058 3 
8.61282 14.3553 0.000314063 3 
12.9203 12.9201 1.43505 3 
15.7915 12.9204 1.43506 3 
12.9203 15.7913 1.43541 3 
15.7916 15.7913 1.43541 3 
14.3558 14.3554 2.87108 3 
18.6628 12.9201 1.435 3 
18.663 15.7913 1.43539 3 
17.2274 14.3554 2.87101 3 
20.0989 14.3554 2.8705 3 
21.5344 12.9197 1.43495 3 
24.406 12.9194 1.43489 3 
21.5345 15.7913 1.43536 3 
24.4061 15.7914 1.43538 3 
22.9706 14.3554 2.8699 3 
22.9704 14.3554 0.000339945 3 
27.2772 12.9193 1.43482 3 
25.8419 14.3552 0.000541057 3 
27.2773 15.7914 1.43534 3 
25.8421 14.3554 2.86964 3 
1.43566 18.6634 1.4358 3 
0.000663969 20.0994 0.00134411 3 
2.87064 20.0994 0.00127057 3 
2.87072 17.2275 2.87026 3 
2.8708 20.0994 2.87073 3 
0.000576679 17.2275 2.87026 3 
0.00046824 20.0994 2.87076 3 
2.87067 17.2273 0.000838107 3 
0.00065089 17.2273 0.000892419 3 
4.30606 18.6634 1.43578 3 
7.17722 18.6632 1.43579 3 
5.74133 17.2275 2.87015 3 
5.7416 20.0993 2.87065 3 
5.74122 17.2272 0.0010005 3 
5.74118 20.0994 0.00145132 3 
10.0488 18.6629 1.43577 3 
11.4843 17.2272 0.000214666 3 
8.61283 17.2273 2.8704 3 
11.4846 17.2268 2.87098 3 
8.61317 20.0989 2.8708 3 
11.4849 20.0982 2.87121 3 
8.61264 17.2272 0.000791285 3 
8.61257 20.0992 0.00131092 3 
11.4844 20.0988 0.000817036 3 
12.9204 18.6624 1.43576 3 
15.7917 18.6622 1.43577 3 
14.356 17.2263 2.87144 3 
14.3562 20.0977 2.87145 3 
14.356 20.0983 0.000464223 3 
18.663 18.6626 1.43578 3 
17.2273 17.2264 2.8714 3 
20.0987 17.2269 2.87091 3 
17.2271 20.0978 2.87145 3 
20.0984 20.0984 2.87119 3 
20.099 17.2274 0.000248889 3 
17.2274 20.0984 0.000498338 3 
20.099 20.0991 0.000902433 3 
21.5345 18.6631 1.43582 3 
24.4061 18.6633 1.43585 3 
22.9708 20.0995 0.0014062 3 
22.9704 17.2274 2.8704 3 
22.9702 20.0991 2.87086 3 
22.9707 17.2273 0.000831562 3 
25.8421 17.2273 0.00107931 3 
27.2773 18.6634 1.43585 3 
25.8422 20.0995 0.00158376 3 
25.8419 17.2275 2.87017 3 
25.8417 20.0994 2.87069 3 
1.43564 21.5353 1.4362 3 
1.43567 24.4067 1.43636 3 
2.87071 22.9712 0.00155304 3 
2.87097 22.9709 2.87109 3 
0.000609671 22.9713 0.00162291 3 
0.00033571 22.971 2.87113 3 
4.30617 21.5352 1.4362 3 
7.17739 21.535 1.43619 3 
4.30643 24.4066 1.43638 3 
7.17775 24.4063 1.43641 3 
5.74198 22.9708 2.87105 3 
5.74134 22.9713 0.00176302 3 
10.0491 21.5345 1.43615 3 
10.0494 24.4058 1.43635 3 
11.4847 22.9704 0.00127807 3 
8.61357 22.9703 2.87118 3 
11.4851 22.9697 2.8714 3 
8.61281 22.9711 0.00167914 3 
12.9205 21.5339 1.43608 3 
15.7916 21.5337 1.4361 3 
12.9206 24.4054 1.43632 3 
14.3561 22.97 0.00108513 3 
15.7916 24.4053 1.43636 3 
14.3562 22.9693 2.87154 3 
18.6628 21.5341 1.43615 3 
17.2272 22.9701 0.00113598 3 
18.6626 24.4056 1.43639 3 
20.0986 22.9707 0.001374 3 
17.227 22.9694 2.87156 3 
20.0982 22.9699 2.87145 3 
21.5343 21.5348 1.43626 3 
24.4059 21.5352 1.43632 3 
21.5339 24.4061 1.43646 3 
22.9706 22.9714 0.00179925 3 
24.4056 24.4067 1.43653 3 
22.9698 22.9706 2.87129 3 
27.2771 21.5353 1.43628 3 
25.842 22.9715 0.00188848 3 
27.2769 24.4068 1.43647 3 
25.8413 22.9709 2.87115 3 
2.87129 28.712 2.87067 3 
1.43569 27.2774 1.43607 3 
2.87091 25.8425 0.00141933 3 
2.87119 25.8418 2.87116 3 
0.000444491 25.8426 0.00147727 3 
0.000189097 25.8419 2.8712 3 
5.74264 28.7118 2.87076 3 
4.30677 27.2773 1.43607 3 
7.17818 27.277 1.43608 3 
5.74241 25.8416 2.8712 3 
5.74181 25.8425 0.00155361 3 
8.61404 28.7117 2.87089 3 
11.4852 28.7116 2.87108 3 
8.61345 25.8421 0.00139551 3 
10.0496 27.2767 1.43609 3 
11.485 25.8417 0.00122956 3 
8.61391 25.8412 2.87131 3 
11.4852 25.8408 2.87148 3 
14.3561 28.7116 2.87121 3 
12.9207 27.2766 1.43613 3 
14.3561 25.8415 0.00117397 3 
15.7915 27.2766 1.43617 3 
14.3561 25.8406 2.87161 3 
17.2269 28.7117 2.87123 3 
20.0979 28.7118 2.87114 3 
18.6624 27.2767 1.4362 3 
20.0983 25.842 0.00131892 3 
17.227 25.8407 2.87165 3 
20.098 25.841 2.87156 3 
17.2271 25.8416 0.00120384 3 
22.9691 28.7119 2.87099 3 
21.5336 27.277 1.43619 3 
24.4051 27.2773 1.43619 3 
22.9693 25.8415 2.87144 3 
22.9699 25.8424 0.00151967 3 
25.8415 25.8428 0.00168142 3 
27.2766 27.2774 1.43617 3 
25.8409 25.8418 2.87131 3 
1.43571 1.43462 4.30534 3 
1.43568 1.43433 7.1761 3 
0.000463788 2.86925 5.74021 3 
2.87089 2.86921 5.74023 3 
4.30675 1.43453 4.30536 3 
7.17814 1.43451 4.30556 3 
4.3064 1.43426 7.17613 3 
7.17766 1.43423 7.17629 3 
5.74173 2.86904 5.74014 3 
10.0495 1.43455 4.30588 3 
10.0492 1.43432 7.17683 3 
8.61333 2.86923 5.74048 3 
11.4848 2.86946 5.74093 3 
12.9206 1.43459 4.30614 3 
15.7914 1.43466 4.30624 3 
12.9204 1.43443 7.17729 3 
15.7914 1.43452 7.17747 3 
14.3559 2.8696 5.74123 3 
18.6624 1.43473 4.30614 3 
18.6624 1.43454 7.17726 3 
17.2269 2.86968 5.7412 3 
20.0982 2.8696 5.74093 3 
21.5336 1.43473 4.30591 3 
24.4051 1.43469 4.3056 3 
21.5338 1.43451 7.17679 3 
24.4055 1.43439 7.17623 3 
22.9698 2.86937 5.74046 3 
27.2766 1.43466 4.30537 3 
27.2769 1.43436 7.17607 3 
25.8415 2.86916 5.74012 3 
1.4357 4.30459 4.30452 3 
1.43565 7.17548 4.30408 3 
1.43565 4.30412 7.1755 3 
0.000938594 5.73944 5.73939 3 
1.43561 7.17494 7.17497 3 
2.87037 5.7394 5.73942 3 
4.30606 4.30433 4.30433 3 
7.1774 4.30442 4.30441 3 
4.30539 7.17517 4.30373 3 
7.17614 7.17473 4.30336 3 
4.30539 4.30369 7.17521 3 
7.17615 4.30333 7.17477 3 
4.30423 7.17414 7.17418 3 
5.74011 5.73856 5.73858 3 
7.17297 7.17191 7.17195 3 
10.0491 4.30472 4.30478 3 
10.0484 7.17531 4.30399 3 
10.0484 4.30391 7.17538 3 
8.61205 5.73873 5.73879 3 
10.0466 7.17274 7.17279 3 
11.4843 5.73938 5.73943 3 
12.9204 4.30501 4.30508 3 
15.7915 4.30513 4.30519 3 
12.9202 7.17593 4.30447 3 
15.7915 7.17615 4.30463 3 
12.9201 4.30439 7.17599 3 
15.7914 4.30458 7.17619 3 
12.9196 7.1738 7.17385 3 
14.3558 5.73974 5.73981 3 
15.7914 7.17415 7.17416 3 
18.6626 4.3051 4.30507 3 
18.6628 7.17595 4.30444 3 
18.6628 4.30447 7.17594 3 
17.2271 5.73978 5.73976 3 
18.6633 7.17382 7.17379 3 
20.0987 5.73947 5.73939 3 
21.534 4.30487 4.30477 3 
24.4058 4.30453 4.30441 3 
21.5347 7.17539 4.30393 3 
24.407 7.17478 4.30333 3 
21.5346 4.30401 7.17532 3 
21.5364 7.17276 7.1727 3 
22.9711 5.73884 5.73873 3 
24.407 4.30342 7.1747 3 
24.4102 7.17192 7.17187 3 
27.2773 4.30442 4.30432 3 
27.2779 7.17519 4.3037 3 
27.2779 4.30378 7.17517 3 
25.8431 5.73862 5.73855 3 
27.279 7.17414 7.17412 3 
1.43562 10.0473 4.30417 3 
0.00114246 8.61091 5.73913 3 
1.43555 10.0469 7.17495 3 
2.87008 8.61091 5.73915 3 
0.00110444 11.4831 5.73935 3 
2.87006 11.4831 5.73938 3 
4.30516 10.047 4.30376 3 
7.17563 10.0466 4.30336 3 
4.30396 10.0463 7.17402 3 
5.73911 8.60995 5.73789 3 
7.17183 10.0444 7.17125 3 
5.73908 11.4827 5.73815 3 
10.0474 10.0466 4.30392 3 
8.60995 8.60888 5.73723 3 
10.0429 10.0422 7.17039 3 
11.4835 8.61014 5.73871 3 
8.60956 11.4818 5.73767 3 
11.482 11.4816 5.73909 3 
12.9199 10.0476 4.30493 3 
15.7915 10.048 4.30523 3 
12.9192 10.0451 7.17372 3 
14.3557 8.61095 5.73938 3 
15.7915 10.046 7.17439 3 
14.3554 11.4831 5.7408 3 
18.6631 10.0476 4.30486 3 
17.2272 8.61094 5.73935 3 
18.6638 10.0451 7.17364 3 
20.0995 8.61014 5.73862 3 
17.2276 11.4831 5.74073 3 
20.101 11.4815 5.73899 3 
21.5356 10.0466 4.30383 3 
24.4075 10.0467 4.30329 3 
21.5401 10.0421 7.17027 3 
22.9731 8.60889 5.73715 3 
24.4113 10.0443 7.17115 3 
22.9735 11.4818 5.73755 3 
27.2781 10.0471 4.30373 3 
25.844 8.60995 5.73782 3 
27.2792 10.0463 7.17396 3 
25.8441 11.4827 5.73809 3 
1.4356 12.9194 4.30451 3 
1.43561 15.7915 4.30499 3 
1.43556 12.9192 7.17532 3 
1.43558 15.7914 7.17575 3 
2.87016 14.3554 5.73984 3 
0.000994921 14.3554 5.73981 3 
7.17573 12.9192 4.30388 3 
4.30522 12.9193 4.30414 3 
4.30539 15.7916 4.30467 3 
7.17611 15.7916 4.30451 3 
4.30419 12.9191 7.17445 3 
7.17232 12.9185 7.17207 3 
4.30453 15.7916 7.17505 3 
5.73942 14.3555 5.73878 3 
7.17324 15.7922 7.17311 3 
10.0474 12.919 4.30469 3 
10.0479 15.7913 4.30538 3 
10.0431 12.9172 7.17192 3 
8.61016 14.3553 5.73864 3 
10.0446 15.7919 7.17342 3 
11.4824 14.3546 5.74047 3 
12.9194 12.9191 4.30593 3 
15.7916 12.9196 4.30642 3 
12.9198 15.7906 4.30671 3 
15.7916 15.7902 4.30737 3 
12.9165 12.9163 7.17504 3 
15.7915 12.9185 7.17731 3 
12.9181 15.79 7.17678 3 
14.3549 14.3541 5.74249 3 
15.7916 15.788 7.17933 3 
18.6637 12.9191 4.30584 3 
18.6634 15.7907 4.3066 3 
18.6665 12.9162 7.17495 3 
17.2282 14.3541 5.74242 3 
18.6652 15.79 7.1767 3 
20.1007 14.3546 5.74037 3 
21.5357 12.919 4.30461 3 
24.4074 12.9192 4.30385 3 
21.5353 15.7913 4.30529 3 
24.407 15.7916 4.30446 3 
21.54 12.9171 7.17177 3 
24.4108 12.9184 7.17196 3 
21.5386 15.7918 7.1733 3 
22.9729 14.3552 5.73855 3 
24.4099 15.7921 7.17301 3 
27.278 12.9193 4.30412 3 
27.2778 15.7915 4.30465 3 
27.2789 12.919 7.17441 3 
25.8437 14.3555 5.73873 3 
27.2786 15.7916 7.175 3 
1.43562 18.6635 4.30545 3 
0.000892118 17.2276 5.7403 3 
1.43561 18.6634 7.17614 3 
2.87031 17.2276 5.74032 3 
2.87052 20.0994 5.74077 3 
0.000699661 20.0994 5.74075 3 
4.30567 18.6636 4.3052 3 
7.1766 18.6636 4.30505 3 
4.30492 18.6638 7.17561 3 
5.73991 17.228 5.73946 3 
7.17426 18.6647 7.17413 3 
5.74058 20.0998 5.74014 3 
10.0485 18.6631 4.30578 3 
8.61101 17.228 5.73944 3 
10.0462 18.6647 7.17453 3 
11.4836 17.227 5.74114 3 
8.61198 20.0998 5.74022 3 
11.4845 20.0987 5.74144 3 
12.9205 18.6621 4.30683 3 
15.7917 18.6616 4.30723 3 
12.9198 18.6626 7.17702 3 
14.356 17.2255 5.74301 3 
15.7917 18.6614 7.17822 3 
14.3562 20.0977 5.74242 3 
18.6628 18.6621 4.30677 3 
17.2273 17.2255 5.74296 3 
18.6635 18.6626 7.17698 3 
20.0997 17.2271 5.74104 3 
17.2271 20.0977 5.74237 3 
20.0988 20.0988 5.74138 3 
21.5347 18.6632 4.30574 3 
24.4066 18.6637 4.30505 3 
21.5371 18.6647 7.17442 3 
22.9722 17.228 5.73935 3 
24.4089 18.6647 7.17405 3 
22.9713 20.0998 5.74017 3 
27.2776 18.6636 4.30519 3 
25.8432 17.2279 5.7394 3 
27.2783 18.6637 7.17555 3 
25.8427 20.0998 5.74011 3 
1.43562 21.5352 4.30589 3 
1.43567 24.4063 4.30617 3 
1.43563 21.535 7.17645 3 
0.0004855 22.9708 5.74115 3 
1.43566 24.4061 7.17662 3 
2.87081 22.9707 5.74116 3 
4.30606 21.5352 4.3057 3 
7.17722 21.5351 4.30566 3 
4.30651 24.4062 4.30609 3 
7.1779 24.4059 4.3062 3 
4.30547 21.5353 7.17612 3 
7.1757 21.536 7.1754 3 
4.30615 24.4061 7.17656 3 
5.74144 22.9709 5.74089 3 
7.17726 24.406 7.17661 3 
10.0491 21.5344 4.30617 3 
10.0495 24.4054 4.30658 3 
10.0479 21.5354 7.17607 3 
8.61307 22.9705 5.74118 3 
10.0491 24.4053 7.17734 3 
11.485 22.9696 5.74198 3 
12.9207 21.5337 4.30676 3 
15.7916 21.5334 4.30695 3 
12.9207 24.4049 4.30694 3 
15.7915 24.4048 4.30708 3 
12.9204 21.534 7.17749 3 
15.7916 21.5335 7.178 3 
12.9206 24.4045 7.17813 3 
14.3562 22.9691 5.74249 3 
15.7915 24.4043 7.17843 3 
18.6626 21.5338 4.30673 3 
18.6624 24.4051 4.30695 3 
18.6628 21.5341 7.17746 3 
17.227 22.9692 5.74247 3 
18.6625 24.4047 7.17811 3 
20.0982 22.9698 5.74197 3 
21.5342 21.5346 4.30621 3 
24.4061 21.5353 4.3057 3 
21.5337 24.4056 4.30666 3 
24.4054 24.4062 4.3063 3 
21.5353 21.5355 7.17604 3 
24.4076 21.536 7.17534 3 
21.5341 24.4055 7.17732 3 
22.9702 22.9707 5.74121 3 
24.406 24.4062 7.17658 3 
27.2772 21.5353 4.30574 3 
27.2768 24.4064 4.30615 3 
27.2778 21.5353 7.17608 3 
25.8418 22.971 5.74091 3 
27.2772 24.4062 7.17653 3 
1.43569 27.2767 4.30603 3 
2.87118 28.7115 5.74096 3 
1.43567 27.2765 7.1765 3 
2.87111 25.8414 5.74133 3 
0.000213542 28.7116 5.74094 3 
0.000257587 25.8415 5.74131 3 
5.74239 28.7114 5.74109 3 
4.30686 27.2766 4.30605 3 
7.17828 27.2764 4.30625 3 
4.30651 27.2766 7.1765 3 
5.74221 25.8413 5.74137 3 
7.17786 27.2764 7.17673 3 
8.61385 28.7113 5.74145 3 
10.0497 27.2761 4.30656 3 
11.4851 28.7112 5.74188 3 
8.61376 25.8409 5.74176 3 
10.0494 27.2761 7.17729 3 
11.4852 25.8404 5.74228 3 
14.356 28.7112 5.74215 3 
12.9207 27.2759 4.30686 3 
15.7915 27.2759 4.30697 3 
12.9206 27.2758 7.17781 3 
14.3561 25.8402 5.74263 3 
15.7914 27.2758 7.17798 3 
17.2269 28.7113 5.74216 3 
20.0979 28.7114 5.74191 3 
18.6623 27.276 4.30689 3 
17.2269 25.8402 5.74261 3 
18.6624 27.2759 7.17776 3 
20.0979 25.8406 5.74231 3 
22.9693 28.7115 5.74147 3 
21.5335 27.2763 4.30664 3 
24.405 27.2766 4.30633 3 
21.5337 27.2763 7.17726 3 
22.9694 25.8411 5.74179 3 
24.4054 27.2766 7.17668 3 
25.8409 28.7116 5.74107 3 
27.2765 27.2768 4.30609 3 
25.8411 25.8415 5.74139 3 
27.2768 27.2767 7.17645 3 
0.000592583 2.8691 8.61153 3 
2.87068 2.86907 8.61157 3 
1.43564 1.43444 10.0476 3 
0.000576905 2.86933 11.4834 3 
2.87057 2.86933 11.4834 3 
5.74123 2.86885 8.61141 3 
4.30613 1.43441 10.0476 3 
7.17729 1.4344 10.0477 3 
5.74104 2.86915 11.4834 3 
8.61264 2.86899 8.61155 3 
11.4845 2.86945 8.61225 3 
10.0489 1.43451 10.0482 3 
8.61239 2.86936 11.4835 3 
11.4841 2.86994 11.4838 3 
14.3558 2.86973 8.61271 3 
12.9203 1.43465 10.0488 3 
15.7914 1.43474 10.049 3 
14.3557 2.87035 11.4843 3 
17.227 2.86978 8.61267 3 
20.0984 2.86959 8.61216 3 
18.6625 1.43475 10.0487 3 
17.2271 2.8704 11.4843 3 
20.0988 2.87 11.4836 3 
22.9704 2.86914 8.61146 3 
21.5341 1.43467 10.048 3 
24.4059 1.43454 10.0476 3 
22.9706 2.86947 11.4833 3 
25.842 2.86898 8.61134 3 
27.2771 1.43447 10.0475 3 
25.8416 5.12994e-05 11.4833 3 
25.842 2.86922 11.4833 3 
2.87006 5.73913 8.61096 3 
1.43559 4.30417 10.0473 3 
1.43553 7.17494 10.0469 3 
0.00105963 5.73937 11.4832 3 
2.87001 5.73935 11.4832 3 
0.00112376 5.73914 8.61093 3 
5.73911 5.73786 8.60998 3 
4.30511 4.30372 10.0471 3 
7.17561 4.30333 10.0467 3 
4.30391 7.17399 10.0463 3 
7.17177 7.1712 10.0444 3 
5.73899 5.73813 11.4827 3 
8.60992 5.73717 8.60893 3 
11.4835 5.73865 8.6102 3 
10.0474 4.30385 10.0467 3 
10.0428 7.17036 10.0422 3 
8.6095 5.73762 11.4819 3 
11.482 5.73905 11.4816 3 
14.3556 5.73934 8.61098 3 
12.9198 4.30486 10.0476 3 
15.7914 4.3052 10.048 3 
12.9191 7.17371 10.0451 3 
15.7914 7.17443 10.046 3 
14.3553 5.74078 11.4831 3 
17.2272 5.73936 8.61093 3 
20.0994 5.7387 8.6101 3 
18.663 4.30494 10.0476 3 
18.6637 7.17372 10.045 3 
17.2275 5.7408 11.483 3 
20.1009 5.73911 11.4815 3 
22.9731 5.73724 8.60883 3 
21.5356 4.30394 10.0465 3 
24.4075 4.30338 10.0466 3 
21.5401 7.17036 10.0421 3 
22.9734 5.73768 11.4818 3 
24.4112 7.17121 10.0443 3 
25.844 5.73789 8.60993 3 
27.278 4.30377 10.0471 3 
27.2792 7.17399 10.0463 3 
25.844 5.73816 11.4827 3 
0.0013908 8.61048 8.6105 3 
2.8697 8.61048 8.61051 3 
0.00127987 11.4828 8.61065 3 
2.86978 11.4828 8.61068 3 
1.43552 10.0468 10.0468 3 
0.00126847 8.61065 11.4829 3 
2.86975 8.61064 11.4829 3 
0.0010685 11.4827 11.4828 3 
2.86997 11.4827 11.4828 3 
5.73728 8.60837 8.6084 3 
5.73743 11.4817 8.60851 3 
4.30366 10.0458 10.0459 3 
7.16931 10.0419 10.0419 3 
5.73738 8.60848 11.4817 3 
5.73773 11.481 11.4811 3 
8.60357 8.60325 8.60327 3 
11.4817 8.60632 8.60635 3 
8.60287 11.4785 8.60321 3 
11.4746 11.474 8.60271 3 
10.0289 10.0297 10.0297 3 
8.60283 8.60318 11.4785 3 
11.4746 8.60269 11.4741 3 
8.60018 11.4746 11.4746 3 
11.4409 11.4435 11.4435 3 
14.3555 8.60787 8.60785 3 
14.3558 11.481 8.60996 3 
12.9196 10.0401 10.0402 3 
15.7914 10.0413 10.0413 3 
14.3557 8.61002 11.481 3 
14.3661 11.4787 11.4786 3 
17.2274 8.60786 8.6078 3 
20.1012 8.6063 8.60623 3 
17.2272 11.481 8.60992 3 
20.1084 11.474 8.60258 3 
18.6633 10.0401 10.04 3 
17.2271 8.61001 11.4809 3 
20.1083 8.60267 11.474 3 
17.2169 11.4786 11.4786 3 
20.1422 11.4434 11.4434 3 
22.9795 8.60321 8.60316 3 
22.9802 11.4784 8.60304 3 
21.554 10.0296 10.0296 3 
22.9801 8.60314 11.4784 3 
22.9828 11.4745 11.4745 3 
24.4137 10.0418 10.0418 3 
25.8458 8.60835 8.60833 3 
25.8457 11.4816 8.60844 3 
27.2794 10.0458 10.0458 3 
25.8456 8.60845 11.4817 3 
25.8453 11.481 11.481 3 
0.00111261 14.3552 8.61112 3 
2.86998 14.3552 8.61113 3 
1.43554 12.919 10.0471 3 
1.43557 15.7912 10.0475 3 
0.000840889 14.355 11.4831 3 
2.87023 14.355 11.4831 3 
5.73814 14.3553 8.60936 3 
4.30417 12.9187 10.0462 3 
7.17058 12.9173 10.0428 3 
4.30453 15.7913 10.0468 3 
7.17193 15.792 10.0442 3 
5.7388 14.3547 11.4818 3 
8.60462 14.3553 8.60519 3 
11.4763 14.3532 8.60628 3 
10.0309 12.9133 10.0325 3 
10.0352 15.7951 10.0366 3 
8.60368 14.3538 11.4772 3 
11.4527 14.354 11.4575 3 
14.3512 14.3504 8.61262 3 
12.9036 12.9042 10.0351 3 
15.7916 12.9195 10.0507 3 
12.9107 15.7909 10.0405 3 
15.7916 15.7819 10.0473 3 
14.3249 14.333 11.4738 3 
17.232 14.3504 8.61255 3 
20.1068 14.3531 8.60615 3 
18.6794 12.9042 10.035 3 
18.6725 15.7909 10.0404 3 
17.2583 14.3329 11.4738 3 
20.1305 14.3539 11.4574 3 
22.9785 14.3552 8.60505 3 
21.5522 12.9132 10.0324 3 
21.5479 15.795 10.0365 3 
24.4112 15.7919 10.0441 3 
22.9794 14.3537 11.477 3 
24.4124 12.9172 10.0426 3 
25.845 14.3552 8.60926 3 
27.2789 12.9186 10.0462 3 
27.2786 15.7913 10.0468 3 
25.8443 14.3546 11.4817 3 
2.87013 17.2274 8.61154 3 
2.8703 20.0992 8.61187 3 
1.43559 18.6631 10.0477 3 
0.000875347 17.2271 11.4835 3 
2.87028 17.2271 11.4835 3 
2.87028 20.099 11.4837 3 
0.00101216 17.2274 8.61154 3 
0.000923479 20.0992 8.61184 3 
0.000966669 20.099 11.4836 3 
5.73878 17.2281 8.61019 3 
5.73953 20.1001 8.61096 3 
4.30472 18.6635 10.0473 3 
7.17288 18.6651 10.0455 3 
5.73904 17.2276 11.4826 3 
5.73928 20.0996 11.4831 3 
8.60645 17.23 8.60695 3 
11.4795 17.2293 8.60819 3 
8.60881 20.1019 8.60914 3 
11.4823 20.1007 8.61061 3 
10.0395 18.6696 10.0409 3 
8.60525 17.23 11.4793 3 
11.464 17.2417 11.4667 3 
8.60824 20.1002 11.4826 3 
11.4813 20.0981 11.4847 3 
14.3552 17.2251 8.61314 3 
14.356 20.0984 8.61299 3 
12.9158 18.6671 10.0439 3 
15.7917 18.6632 10.0475 3 
14.3465 17.2366 11.4728 3 
14.3564 20.0933 11.4894 3 
17.2281 17.2252 8.61311 3 
20.1038 17.2293 8.6081 3 
17.2274 20.0984 8.61298 3 
20.101 20.1008 8.61053 3 
18.6675 18.6671 10.0438 3 
17.2368 17.2366 11.4728 3 
20.1193 17.2417 11.4666 3 
17.2269 20.0933 11.4894 3 
20.102 20.0981 11.4846 3 
22.9768 17.23 8.60683 3 
22.9745 20.1019 8.60906 3 
21.5438 18.6696 10.0408 3 
24.4104 18.665 10.0453 3 
22.978 17.2299 11.4792 3 
22.9751 20.1002 11.4824 3 
25.8444 17.2281 8.61009 3 
25.8437 20.1001 8.61087 3 
27.2785 18.6635 10.0472 3 
25.8441 17.2276 11.4825 3 
25.844 20.0996 11.483 3 
2.87059 22.9706 8.61207 3 
1.43563 21.5348 10.0478 3 
1.43567 24.4062 10.0477 3 
0.000955365 22.9708 11.4834 3 
2.87034 22.9708 11.4834 3 
0.000703126 22.9706 8.61204 3 
5.7407 22.9709 8.61176 3 
4.30508 21.5351 10.0475 3 
7.17471 21.5357 10.047 3 
4.3055 24.4065 10.0474 3 
7.17569 24.4073 10.0467 3 
5.73955 22.9717 11.4826 3 
8.61194 22.9708 8.61187 3 
11.4845 22.9694 8.61323 3 
10.0464 21.5352 10.0475 3 
8.60882 22.9736 11.4808 3 
11.4824 22.9721 11.482 3 
10.0479 24.4066 10.0473 3 
14.3561 22.9683 8.61433 3 
12.9201 21.5327 10.05 3 
15.7917 21.5314 10.0512 3 
12.9204 24.4052 10.0487 3 
15.7916 24.4047 10.0492 3 
14.356 22.9697 11.4843 3 
17.2271 22.9684 8.6143 3 
20.0987 22.9695 8.61318 3 
20.1009 22.9721 11.4819 3 
17.2273 22.9697 11.4843 3 
18.6632 21.5327 10.05 3 
18.6628 24.4053 10.0486 3 
22.9713 22.9709 8.6118 3 
22.9745 22.9736 11.4807 3 
24.4076 24.4073 10.0466 3 
21.5353 24.4067 10.0472 3 
24.4086 21.5357 10.0469 3 
21.5369 21.5353 10.0474 3 
25.8426 22.971 8.61168 3 
25.8437 22.9718 11.4825 3 
27.2778 24.4066 10.0473 3 
27.2782 21.5351 10.0475 3 
2.8708 28.7119 11.4834 3 
0.000468761 28.7119 11.4834 3 
0.000358277 28.7116 8.61186 3 
2.87098 28.7115 8.6119 3 
0.000511217 25.8415 8.61197 3 
2.87085 25.8415 8.612 3 
2.87058 25.8418 11.4833 3 
0.000740234 25.8419 11.4833 3 
1.43565 27.2768 10.0476 3 
5.74194 28.7116 8.61197 3 
5.74157 28.7119 11.4834 3 
5.74143 25.8417 8.6118 3 
5.7406 25.8425 11.4829 3 
7.17719 27.277 10.0476 3 
4.30607 27.2769 10.0475 3 
8.61344 28.7114 8.61239 3 
8.61306 28.7118 11.4838 3 
11.4849 28.7113 8.61303 3 
8.61304 25.8415 8.61216 3 
11.4849 25.8407 8.61302 3 
11.4845 25.8412 11.484 3 
8.61197 25.8425 11.483 3 
10.049 27.2765 10.0482 3 
11.4847 28.7115 11.4844 3 
14.356 28.7113 11.485 3 
14.356 28.7112 8.61342 3 
14.3561 25.8402 8.61357 3 
14.3561 25.8403 11.485 3 
15.7915 27.2758 10.0493 3 
12.9206 27.276 10.049 3 
20.098 28.7114 8.61293 3 
20.0983 28.7116 11.4842 3 
17.2269 28.7113 8.61339 3 
17.2269 25.8403 8.61355 3 
20.0982 25.8408 8.61295 3 
17.227 25.8403 11.485 3 
18.6625 27.2761 10.0489 3 
17.227 28.7113 11.4849 3 
20.0987 25.8413 11.4839 3 
22.9701 28.712 11.4835 3 
22.9697 28.7116 8.61227 3 
22.9702 25.8416 8.61207 3 
21.5341 27.2766 10.0481 3 
24.4061 27.2771 10.0474 3 
22.9713 25.8425 11.4827 3 
25.8413 28.7117 8.61186 3 
25.8419 25.8419 8.6117 3 
27.2772 27.277 10.0474 3 
25.8427 25.8425 11.4828 3 
1.43558 1.43479 12.9194 3 
2.87055 2.86976 14.3555 3 
1.43554 1.43532 15.7914 3 
2.87069 0.000317296 14.3553 3 
0.000497221 2.86979 14.3554 3 
0.000487334 0.00035661 14.3552 3 
4.306 1.43479 12.9194 3 
7.1771 1.43482 12.9195 3 
4.30596 1.43529 15.7914 3 
7.1771 1.4353 15.7914 3 
5.74109 2.86962 14.3555 3 
5.74133 0.00045177 14.3553 3 
10.0487 1.43491 12.9198 3 
8.6128 0.000257782 14.3554 3 
8.61249 2.86988 14.3555 3 
10.0487 1.43532 15.7914 3 
11.4842 2.87052 14.3554 3 
12.9202 1.435 12.9202 3 
15.7915 1.43503 12.9204 3 
12.9202 1.43533 15.7914 3 
15.7916 1.43536 15.7913 3 
14.3557 2.87101 14.3554 3 
18.6628 1.43505 12.92 3 
17.2273 2.87104 14.3554 3 
20.0988 2.87057 14.3552 3 
18.6629 1.43538 15.7913 3 
21.5343 1.43502 12.9195 3 
24.406 1.43494 12.9193 3 
22.9704 0.000356819 14.3552 3 
22.9705 2.86998 14.3553 3 
21.5344 1.43538 15.7912 3 
24.4059 1.43539 15.7912 3 
27.2771 1.43485 12.9193 3 
27.2771 1.43534 15.7913 3 
25.8419 2.8697 14.3554 3 
25.8418 0.000517165 14.3551 3 
1.43552 4.30452 12.9194 3 
1.4355 7.17528 12.9193 3 
0.000883781 5.73984 14.3555 3 
1.43549 4.305 15.7915 3 
1.43549 7.17572 15.7915 3 
2.8701 5.73981 14.3555 3 
4.30515 4.30412 12.9194 3 
7.17567 4.30386 12.9193 3 
4.30412 7.17442 12.9191 3 
7.17224 7.17201 12.9186 3 
5.73934 5.73873 14.3556 3 
4.30531 4.30464 15.7916 3 
7.17603 4.30446 15.7917 3 
4.30446 7.17499 15.7917 3 
7.17314 7.17301 15.7922 3 
10.0473 4.30463 12.919 3 
10.043 7.17185 12.9172 3 
8.61007 5.73858 14.3553 3 
10.0478 4.30528 15.7913 3 
10.0445 7.17333 15.7919 3 
11.4823 5.74039 14.3546 3 
12.9193 4.30587 12.9192 3 
15.7914 4.30643 12.9196 3 
12.9165 7.17502 12.9163 3 
15.7914 7.17738 12.9185 3 
12.9197 4.3066 15.7907 3 
15.7915 4.30732 15.7902 3 
12.918 7.17674 15.79 3 
15.7915 7.17937 15.788 3 
14.3548 5.74247 14.3541 3 
18.6636 4.30593 12.9191 3 
18.6664 7.17506 12.9162 3 
20.1005 5.74048 14.3545 3 
18.6632 4.30666 15.7906 3 
18.665 7.17681 15.79 3 
17.2281 5.7425 14.3541 3 
21.5355 4.30472 12.9189 3 
24.4073 4.30392 12.9191 3 
21.5398 7.17189 12.917 3 
24.4107 7.17204 12.9185 3 
22.9728 5.73865 14.3552 3 
21.5351 4.30539 15.7912 3 
24.4069 4.30454 15.7916 3 
21.5385 7.17342 15.7918 3 
24.4097 7.1731 15.7921 3 
27.2779 4.30415 12.9194 3 
27.2789 7.17443 12.9191 3 
27.2776 4.30468 15.7916 3 
27.2785 7.17503 15.7917 3 
25.8436 5.73877 14.3555 3 
1.4355 10.047 12.9191 3 
2.86991 8.61107 14.3553 3 
1.43551 10.0475 15.7913 3 
0.00106049 8.6111 14.3553 3 
0.000819622 11.4831 14.3551 3 
2.87021 11.4831 14.3551 3 
4.30413 10.0461 12.9188 3 
7.17053 10.0427 12.9173 3 
4.30449 10.0467 15.7914 3 
7.17188 10.0441 15.7921 3 
5.73807 8.60926 14.3553 3 
5.73877 11.4817 14.3548 3 
10.0309 10.0325 12.9133 3 
11.4762 8.60625 14.3532 3 
11.4526 11.4575 14.3541 3 
8.60452 8.60509 14.3553 3 
8.60361 11.4771 14.3539 3 
10.0352 10.0366 15.7951 3 
12.9036 10.0352 12.9043 3 
15.7915 10.0508 12.9195 3 
14.3249 11.4739 14.333 3 
12.9106 10.0406 15.791 3 
15.7915 10.0474 15.7819 3 
14.3511 8.61267 14.3505 3 
17.2582 11.4739 14.333 3 
18.6793 10.0351 12.9042 3 
20.1067 8.60627 14.3531 3 
18.6724 10.0406 15.7909 3 
20.1304 11.4575 14.354 3 
17.2318 8.61269 14.3504 3 
21.5521 10.0324 12.9132 3 
24.4124 10.0426 12.9173 3 
22.9784 8.60512 14.3552 3 
21.5478 10.0366 15.795 3 
24.4111 10.0441 15.792 3 
22.9794 11.4771 14.3538 3 
27.2789 10.0462 12.9188 3 
25.8449 8.60929 14.3553 3 
27.2785 10.0468 15.7914 3 
25.8442 11.4817 14.3547 3 
1.43555 12.9191 12.9192 3 
1.43556 15.7911 12.9195 3 
0.00056997 14.3552 14.3552 3 
2.87053 14.3552 14.3553 3 
1.43554 12.9195 15.7912 3 
1.43556 15.7913 15.7914 3 
4.30485 12.9186 12.9187 3 
7.17232 12.9164 12.9165 3 
4.30519 15.7911 12.9192 3 
7.17359 15.7911 12.9177 3 
5.74005 14.3547 14.3547 3 
4.30516 12.9191 15.7911 3 
7.17356 12.9177 15.7912 3 
4.30556 15.7914 15.7915 3 
7.1749 15.7914 15.7914 3 
11.449 14.3454 14.3454 3 
8.60698 14.3526 14.3526 3 
10.0317 12.9065 12.9065 3 
10.0373 15.7937 12.9113 3 
10.0372 12.9113 15.7937 3 
10.044 15.7914 15.7914 3 
13.9541 14.2053 14.2053 5 
12.8164 12.8218 12.8218 3 
15.7916 12.971 12.971 5 
12.875 15.8236 12.8696 3 
15.7916 15.7867 12.8169 5 
12.8749 12.8697 15.8236 3 
15.7916 12.8171 15.7867 5 
12.9576 15.7914 15.7913 5 
15.7917 15.0424 15.0422 5 
20.1342 14.3454 14.3453 3 
17.6292 14.2053 14.2052 5 
18.7667 12.8218 12.8218 3 
18.7083 15.8235 12.8695 3 
18.7083 12.8697 15.8235 3 
18.6258 15.7913 15.7913 5 
21.5514 12.9064 12.9064 3 
24.4107 12.9163 12.9164 3 
21.5459 15.7936 12.9112 3 
24.4096 15.7911 12.9176 3 
21.5459 12.9113 15.7937 3 
24.4095 12.9176 15.7911 3 
21.5393 15.7914 15.7913 3 
24.4083 15.7914 15.7914 3 
22.9762 14.3525 14.3525 3 
27.2782 12.9186 12.9187 3 
27.2779 15.791 12.9191 3 
25.843 14.3546 14.3547 3 
27.2779 12.9191 15.7911 3 
27.2776 15.7914 15.7914 3 
1.4356 18.663 12.9197 3 
0.000684209 17.2271 14.3556 3 
1.4356 18.6633 15.7917 3 
2.87032 20.0992 14.3556 3 
0.000929701 20.0992 14.3556 3 
2.8705 17.2272 14.3556 3 
4.30496 18.6632 12.9195 3 
7.17337 18.6638 12.919 3 
5.7399 17.2274 14.3555 3 
4.30524 18.6636 15.7917 3 
7.1737 18.6651 15.7917 3 
5.73913 20.1002 14.3552 3 
11.4641 20.1161 14.341 3 
10.0415 18.6632 12.9195 3 
8.60779 17.2273 14.3555 3 
11.4756 17.2217 14.3611 3 
10.0374 18.6715 15.7891 3 
8.60535 20.1034 14.3528 3 
14.3465 20.1099 14.3461 3 
12.9185 18.6551 12.9276 3 
15.7917 18.6454 12.9372 3 
12.875 18.7132 15.7592 3 
14.3693 17.1902 14.3926 5 
15.7917 18.7658 15.796 5 
20.1193 20.116 14.341 3 
17.2369 20.1098 14.3461 3 
18.6649 18.6551 12.9275 3 
20.1077 17.2217 14.361 3 
17.214 17.1901 14.3925 5 
18.7084 18.7131 15.7592 3 
21.5419 18.6632 12.9195 3 
21.546 18.6715 15.789 3 
24.4096 18.6651 15.7916 3 
22.978 20.1034 14.3527 3 
22.9755 17.2272 14.3554 3 
24.4099 18.6637 12.9189 3 
27.2783 18.6632 12.9195 3 
25.8433 17.2273 14.3554 3 
27.278 18.6636 15.7917 3 
25.8442 20.1002 14.3551 3 
2.87021 22.9711 14.3553 3 
1.43564 21.5349 12.9195 3 
1.43566 24.4065 12.9193 3 
1.43564 21.5352 15.7915 3 
1.43565 24.4069 15.7912 3 
0.00109104 22.9711 14.3552 3 
5.73888 22.9725 14.3547 3 
4.30475 21.5354 12.9192 3 
7.17293 21.5373 12.9177 3 
4.30499 24.407 12.919 3 
7.17432 24.4085 12.918 3 
4.30463 21.5359 15.7914 3 
7.17209 21.5386 15.7908 3 
4.30464 24.4076 15.7911 3 
7.17336 24.4096 15.7906 3 
10.0395 21.5419 12.9131 3 
10.0462 24.4082 12.9181 3 
10.0354 21.5462 15.7877 3 
10.0447 24.4093 15.7909 3 
11.4796 22.9746 14.3534 3 
8.60655 22.9758 14.3528 3 
12.9159 21.5389 12.9156 3 
15.7917 21.5351 12.9195 3 
12.9199 24.4057 12.9201 3 
15.7917 24.4045 12.9213 3 
12.9108 21.5422 15.7918 3 