ITEM: TIMESTEP
1000
ITEM: NUMBER OF ATOMS
2001
ITEM: BOX BOUNDS pp pp pp
0.0000000000000000e+00 2.8712000000000000e+01
0.0000000000000000e+00 2.8712000000000000e+01
0.0000000000000000e+00 2.8712000000000000e+01
ITEM: ATOMS x y z 
1.31934 1.40541 1.26725 
0.00159523 2.89286 2.91826 
2.87463 2.69543 2.89586 
4.28131 1.30185 1.45899 
7.1326 1.35242 1.29887 
5.87723 2.89568 2.68648 
5.88463 0.040968 2.71768 
10.0105 1.48035 1.4779 
8.655 2.68246 2.72474 
11.481 2.84121 2.86684 
8.77351 0.0559419 2.77262 
11.558 0.0187155 3.00212 
11.5618 2.74744 0.0785132 
12.989 1.31464 1.42809 
15.7195 1.39827 1.50272 
14.4809 2.83807 2.81057 
14.3176 2.75772 0.0347297 
18.8636 1.4846 1.41829 
17.2942 2.83998 2.79098 
20.2802 2.96907 2.84926 
17.1837 0.130384 2.88826 
20.2029 0.0404985 2.85734 
21.674 1.69414 1.45777 
24.4586 1.6915 1.43218 
22.9594 2.91825 3.12244 
23.0246 0.145872 2.99663 
27.1317 1.42279 1.59492 
25.9133 2.98679 2.92281 
25.9119 2.97958 0.013126 
1.39539 4.17074 1.45038 
1.3632 7.30281 1.40627 
0.113209 5.70493 2.73744 
2.71015 5.69334 2.97589 
2.92223 5.75314 0.187819 
4.24628 4.29714 1.4078 
7.29148 4.25226 1.40185 
4.38111 7.1999 1.44377 
7.27074 7.30779 1.38005 
5.88674 5.79767 2.75282 
5.74372 5.7724 0.0385527 
9.9166 4.38733 1.52896 
9.96536 7.26339 1.57952 
8.57902 5.78245 2.94012 
11.3307 5.67665 2.92182 
12.8715 4.25169 1.40952 
15.6992 4.21243 1.39688 
12.723 7.20066 1.45371 
15.7473 7.16502 1.40238 
14.3164 5.6771 2.81708 
14.1949 5.71313 0.0534362 
18.8515 4.38451 1.29411 
18.9352 7.13307 1.41343 
17.2327 5.68529 2.76317 
20.3146 5.74092 2.93748 
21.5868 4.36728 1.4553 
24.4981 4.44407 1.70084 
21.4965 7.16501 1.20064 
22.9766 5.68913 2.9606 
24.6298 7.2703 1.48396 
27.3613 4.32417 1.58688 
27.5848 7.26522 1.77513 
26.2857 5.73942 2.96124 
28.67 5.70044 0.0366507 
1.42581 10.3027 1.52348 
0.0339991 8.91858 2.73794 
2.79806 8.58476 2.72327 
3.00481 11.4458 3.04301 
3.06274 11.5879 0.0105629 
4.27953 10.1375 1.28722 
7.11575 9.90229 1.53774 
5.98846 11.7097 0.0723461 
5.65522 8.61867 2.78722 
5.73131 11.5778 2.8539 
9.91674 10.1201 1.37983 
8.63382 8.78078 2.92533 
11.3077 8.53067 2.88428 
8.6568 11.6436 2.82227 
11.4892 11.5212 2.76472 
8.87606 8.5663 0.0949686 
8.63159 11.5687 0.0952694 
11.4283 11.4006 0.0519277 
12.7469 9.853 1.38279 
15.7313 10.1437 1.48233 
14.3701 8.63011 2.8271 
14.2056 11.4988 2.77489 
14.2839 8.61496 0.0309332 
18.6851 9.98432 1.52225 
17.079 8.53287 2.72078 
20.1312 8.64127 2.84986 
17.2075 11.5373 2.63922 
20.1903 11.4212 2.88441 
17.144 8.58907 0.0135944 
21.5737 10.0496 1.46656 
24.3353 9.98107 1.41171 
23.0387 8.49072 2.92832 
23.0579 11.4387 2.71638 
23.0207 8.61623 0.0944421 
22.9107 11.4846 0.0551309 
28.6864 11.7642 2.92276 
27.2478 10.3236 1.30913 
25.968 8.85861 2.7868 
25.9837 11.4929 2.83793 
25.9262 8.67811 0.0880868 
1.45509 12.795 1.40784 
0.0781415 14.3538 0.0856315 
1.36023 15.8011 1.48116 
0.0952649 14.3995 2.81371 
2.87174 14.2494 2.73819 
4.29015 12.9604 1.46265 
7.13996 13.039 1.52409 
4.29587 15.7296 1.45086 
7.15712 15.5992 1.48083 
7.05646 12.9766 4.08162 
5.73353 14.4724 3.00751 
10.1792 12.8007 1.45717 
9.89171 15.8041 1.37889 
8.70935 14.4503 2.91139 
11.4739 14.3401 2.83741 
12.9185 12.9002 1.40258 
15.6049 12.9971 1.36004 
12.7821 15.8039 1.33314 
15.6574 15.9579 1.39957 
14.4319 14.3863 2.72151 
18.7949 12.9141 1.46405 
18.6429 15.7327 1.43074 
17.0872 14.4254 2.71821 
20.0883 14.3455 2.83352 
17.1853 14.5662 0.0759001 
21.5157 13.129 1.423 
24.2488 13.0409 1.42085 
21.4677 15.9232 1.25156 
24.3756 15.7903 1.46992 
22.9546 14.4433 2.76788 
27.2976 12.9311 1.4014 
25.6537 14.4632 0.224893 
27.3379 15.5555 1.55175 
25.8436 14.1569 2.80604 
1.4095 18.5213 1.62185 
0.0546886 20.1113 0.107493 
2.62445 19.934 0.0426554 
2.99729 17.1223 2.95752 
2.72971 19.9508 2.93103 
4.13147 18.6947 1.37289 
7.0486 18.6944 1.26552 
5.76758 17.3403 2.7494 
5.61894 20.0987 2.87221 
9.86046 18.6408 1.45516 
11.3514 17.3953 0.122275 
8.51738 17.2849 2.63377 
11.3 17.3661 2.87022 
8.50602 20.2039 2.93749 
11.3773 20.1279 2.64623 
12.91 18.4835 1.40193 
15.6233 18.7442 1.4575 
14.22 17.1276 2.93855 
14.2308 20.1424 2.8138 
18.5436 18.8315 1.31422 
17.1708 17.2504 2.97691 
19.9178 17.2904 2.7542 
17.0228 20.1044 2.81162 
20.0788 20.1896 2.85948 
21.3898 18.6888 1.33085 
24.2663 18.5894 1.39938 
23.0941 20.2247 0.086846 
22.7735 17.3041 2.84386 
22.7569 20.2563 2.96544 
28.6336 17.1483 3.08208 
28.6478 20.2006 3.09144 
25.8318 17.1755 0.0135546 
27.3233 18.8263 1.43774 
25.7242 20.0557 0.0491373 
25.7364 17.2424 2.89766 
25.73 20.0137 2.8522 
1.45402 21.4121 1.63603 
1.266 24.162 1.35807 
2.79694 22.7986 0.106667 
2.833 22.8385 2.77034 
4.22268 21.4229 1.52823 
7.06761 21.2315 1.45721 
4.27181 24.4273 1.44727 
7.10634 24.0787 1.36449 
5.63405 22.9933 2.78611 
9.8932 21.2984 1.38158 
9.86237 24.3282 1.56218 
11.2586 22.836 0.0225807 
8.47403 22.926 2.91444 
11.5364 23.1067 3.09106 
12.7905 21.4777 1.36899 
15.6378 21.5566 1.29807 
12.8363 24.3085 1.40093 
14.2229 22.9406 0.118667 
15.7817 24.404 1.52201 
14.3129 23.1577 2.86235 
18.5098 21.6613 1.45771 
17.1563 23.0235 0.157446 
18.6758 24.4479 1.52353 
19.9947 22.9433 0.0475259 
17.0683 22.9231 2.93158 
20.0634 23.0163 2.79165 
21.3144 21.6039 1.37625 
24.2497 21.5786 1.34053 
21.4895 24.4808 1.52421 
22.8388 23.1324 0.0203408 
24.4412 24.567 1.57317 
22.8272 22.8523 2.87044 
28.6209 22.8665 0.0995336 
28.528 22.9768 2.98381 
27.267 21.6107 1.43508 
25.749 22.9634 0.131009 
27.3525 24.3432 1.46299 
25.7745 23.0033 2.95266 
2.73943 28.4799 2.68364 
1.10547 26.9323 1.56582 
2.72711 25.8197 0.063759 
2.93874 25.8169 2.95423 
4.34664 27.2157 1.47911 
7.11271 27.1955 1.4875 
5.95821 25.8138 2.73212 
11.3445 28.5585 0.177519 
8.40816 25.7463 0.0246775 
9.95742 27.1734 1.34621 
11.2568 25.6517 0.0206752 
8.64842 25.8681 2.79589 
11.4713 25.8289 2.82002 
14.4011 28.6834 0.0230977 
14.2122 28.5721 2.82701 
12.8864 27.137 1.43594 
14.3407 25.7876 0.111197 
15.6754 27.2187 1.50345 
14.374 25.634 2.879 
17.2411 28.7119 0.107664 
18.5253 27.3099 1.45462 
20.0318 25.995 0.152828 
17.292 25.9071 2.95261 
20.1587 25.8195 2.9874 
23.0413 28.5516 0.0730942 
21.3887 27.3301 1.51202 
24.438 27.3107 1.42201 
23.0433 25.8387 2.88381 
28.5586 28.5794 0.0788695 
25.6999 28.6804 0.132962 
28.6071 28.6693 2.91552 
28.4779 25.801 0.0940992 
28.6512 25.6504 3.12443 
25.8152 28.4999 3.02608 
25.8411 25.6779 0.0282947 
27.2813 27.3532 1.71197 
25.8769 25.9425 3.09549 
1.39679 1.30163 4.19554 
1.42616 1.32961 7.01382 
0.0641875 2.84914 5.86404 
2.90797 2.79485 5.62818 
4.23845 1.40834 4.24612 
7.24946 1.44316 4.27499 
4.28224 1.3685 7.20982 
7.29648 1.40435 7.03432 
5.72412 2.83835 5.53015 
5.70423 0.146769 5.70538 
9.9744 1.47343 4.34919 
10.1226 1.46486 7.26037 
8.62381 2.92634 5.69822 
11.6466 2.86059 5.54573 
8.69571 0.000181259 5.84977 
13.0403 1.49163 4.15315 
15.6838 1.12024 4.37584 
12.8351 1.5209 7.1739 
15.8717 1.37446 7.17321 
14.2423 2.86616 5.85982 
14.2586 0.0466971 5.7757 
18.7414 1.38651 4.37202 
18.6992 1.53871 7.21388 
17.2655 2.85268 5.71824 
20.1068 2.77315 5.78687 
17.2413 0.0606354 5.87673 
20.287 0.0569602 5.88746 
21.5389 1.52469 4.45162 
24.5273 1.46724 4.31008 
21.624 1.57332 7.29119 
24.4786 1.54311 7.419 
23.1287 2.95457 5.77437 
23.1032 0.0148436 5.83139 
27.1184 1.51428 4.35099 
27.2404 1.32023 7.32584 
26.128 2.81999 5.93276 
25.7255 0.108346 5.97594 
1.52271 4.21664 4.24515 
1.2535 7.10921 4.11189 
1.48846 4.30765 7.08151 
0.105564 5.79147 5.77336 
1.36677 7.18305 7.14809 
2.9949 5.52297 5.66849 
4.31964 4.35058 4.14105 
7.23964 4.21918 4.21889 
4.26508 7.23586 4.26092 
7.07023 7.07909 4.41138 
4.43192 4.24244 7.17071 
7.08157 4.29393 7.15584 
4.29259 7.31892 7.13734 
5.66645 5.69941 5.64067 
7.02903 7.18626 7.18416 
9.92763 4.2684 4.29613 
9.83225 7.24051 4.34007 
10.0712 4.37695 7.24359 
8.57486 5.69176 5.83298 
9.89186 7.2587 7.23162 
11.4899 5.82269 5.68394 
13.012 4.325 4.28017 
15.6576 4.15912 4.24092 
12.7609 7.16997 4.20879 
15.7998 7.11278 4.18484 
13.0196 4.46024 7.21161 
15.804 4.32356 7.23235 
12.8743 7.07771 7.17871 
14.3156 5.88788 5.62846 
15.5191 7.36728 7.16855 
18.8086 4.38814 4.36059 
18.6251 7.167 4.36076 
18.5454 4.36479 7.35037 
17.1637 5.77424 5.74611 
18.5308 7.33332 7.20477 
20.1698 5.74205 5.84955 
21.4787 4.34328 4.4321 
24.5545 4.34941 4.35875 
21.4168 7.15594 4.29804 
24.5566 7.14715 4.29234 
21.5271 4.30561 7.17982 
21.7253 7.046 7.27448 
23.182 5.84034 5.74539 
27.487 4.35756 4.46521 
27.5364 7.54645 4.30989 
24.6137 4.30048 7.22733 
24.6218 7.26731 7.20904 
27.3858 4.45449 7.12081 
25.9798 5.84696 5.75385 
27.319 7.27414 7.02873 
1.46884 10.0919 4.30069 
0.0595361 8.84302 5.78905 
1.4711 10.1641 7.27435 
2.83711 8.38529 5.6673 
0.296218 11.5205 5.83682 
3.06948 11.4332 5.77114 
4.35777 10.1039 4.3258 
7.12737 10.0541 4.37419 
4.12126 9.95837 7.26084 
5.59286 8.71256 5.71079 
7.00746 10.1323 7.15617 
5.67844 11.543 5.69833 
10.0456 10.1748 4.29669 
8.50116 8.71945 5.84804 
9.98442 10.3333 7.03832 
11.3802 8.54681 5.69147 
8.48804 11.6637 5.65324 
11.5727 11.5839 5.77127 
12.6506 10.117 4.22067 
15.6586 10.0262 4.33 
13.0934 10.2153 7.15496 
14.0775 8.57648 5.53478 
15.93 9.96345 7.15571 
14.238 11.6203 5.71665 
18.6664 10.0028 4.23845 
17.2189 8.62137 5.62061 
18.523 10.1496 7.36725 
20.255 8.55777 5.9056 
17.271 11.5162 5.71518 
20.0422 11.4547 5.75746 
21.6586 9.92661 4.23888 
24.5928 10.2558 4.40362 
21.4341 10.1085 7.14278 
23.065 8.74649 5.87517 
24.6045 10.1208 7.36756 
22.9132 11.4166 5.71155 
27.3467 10.3864 4.51675 
25.9354 8.71354 5.75182 
27.2534 9.94024 7.35457 
25.9869 11.6518 5.68826 
1.5235 12.9828 4.29703 
1.25011 15.7278 4.29131 
1.65844 12.9116 7.10696 
1.57899 15.8198 7.29685 
2.86038 14.6144 5.76263 
4.35677 13.0837 4.31349 
4.27853 15.6241 4.44837 
7.14156 15.7784 4.16164 
4.38464 12.9994 7.19329 
6.89622 12.9817 7.11169 
4.19712 15.9971 7.19436 
5.65914 14.4995 5.69256 
7.02609 15.9603 7.07124 
10.1423 13.0064 4.23698 
10.0499 15.9159 4.17007 
10.0957 12.992 7.08149 
8.4475 14.3794 5.55152 
9.91171 15.9066 7.15374 
11.4677 14.4599 5.68605 
13.0435 13.1533 4.25328 
15.8008 12.8749 4.3066 
12.7937 15.8817 4.28848 
15.801 15.9272 4.50205 
12.889 13.0002 7.15092 
15.7432 12.8227 7.19782 
12.7106 15.7213 7.22562 
14.4502 14.391 5.81402 
15.6171 15.8269 7.19866 
18.6891 13.0621 4.14392 
18.6876 16.0156 4.33135 
18.6232 12.9639 7.11435 
17.2364 14.2789 5.78542 
18.7531 15.7438 7.22225 
20.0392 14.2853 5.83333 
21.5182 12.8828 4.26344 
24.4722 13.0502 4.27869 
21.5952 15.7831 4.26176 
24.4007 15.7398 4.27943 
21.4875 12.9686 7.13947 
24.5394 12.8449 7.13002 
21.4746 15.8109 7.22474 
22.899 14.4497 5.82811 
24.5685 15.6857 7.12292 
27.2829 12.9807 4.31001 
27.198 15.8014 4.26421 
28.6439 14.372 5.81519 
27.2866 12.7837 7.25456 
25.8566 14.3008 5.72834 
27.3398 15.8431 7.19967 
1.48757 18.4835 4.41702 
0.0727834 17.1906 5.87308 
1.60935 18.8152 7.27555 
2.94778 17.2924 5.82295 
2.86044 20.4128 5.71606 
4.22459 18.7448 4.14621 
7.14665 18.7647 4.25332 
4.22268 18.7392 7.20205 
5.70267 17.3721 5.76832 
7.08161 18.7417 7.12564 
5.70208 20.3213 5.80226 
9.89638 18.7698 4.2586 
8.66714 17.179 5.60515 
10.111 18.7179 7.18785 
11.3502 17.2939 5.71975 
8.67553 20.1443 5.68786 
11.4394 20.1358 5.65413 
12.8154 18.5064 4.26939 
15.7463 18.5801 4.27142 
12.9591 18.5942 7.24906 
14.2785 17.3534 5.81117 
15.8439 18.6507 7.24346 
14.3263 19.9455 5.79725 
18.5319 18.7664 4.32326 
17.219 17.2055 5.93591 
18.5891 18.6782 7.11948 
20.1866 17.2413 5.7351 
17.2701 20.2247 5.77406 
20.1199 20.1539 5.88184 
21.3681 18.7146 4.39491 
24.3668 18.6419 4.37033 
21.5666 18.5872 7.16608 
23.0573 17.2161 5.75301 
24.3991 18.5173 7.28304 
23.0431 19.987 5.64348 
27.1028 18.6997 4.35216 
28.7005 19.9768 5.58693 
25.6833 17.2306 5.79342 
27.2042 18.6831 7.03058 
25.7628 20.0527 5.81341 
1.29224 21.5424 4.32519 
1.49702 24.3182 4.29594 
1.5191 21.5789 7.25075 
0.0243255 23.0905 5.90595 
1.56721 24.5103 7.17755 
2.83818 23.0525 5.87042 
4.27108 21.7687 4.1272 
7.12574 21.6449 4.30496 
4.22356 24.5698 4.32483 
7.27859 24.4447 4.22298 
4.40013 21.7106 7.15577 
7.18206 21.4907 7.29019 
4.25278 24.4909 7.16348 
5.60051 23.1223 5.66203 
7.25776 24.4905 7.0687 
9.94868 21.4943 4.17783 
9.88589 24.4506 4.2982 
9.92953 21.5692 7.13661 
8.54998 23.0187 5.83836 
10.1206 24.4597 7.28134 
11.3164 23.0645 5.71629 
12.9001 21.3866 4.28973 
15.7175 21.5658 4.18515 
12.8321 24.484 4.3174 
15.9009 24.2526 4.39023 
12.9831 21.4405 7.1876 
15.8894 21.6848 7.11676 
13.0643 24.3567 7.16978 
14.1986 22.8237 5.71501 
15.6207 24.4253 7.27604 
18.5922 21.5855 4.21888 
18.519 24.5274 4.35094 
18.768 21.6724 7.11003 
17.1902 22.9968 5.75548 
18.4597 24.4701 6.99804 
20.188 23.0189 5.91138 
21.4491 21.5603 4.34623 
24.3445 21.5343 4.27117 
21.5795 24.2821 4.3867 
24.4245 24.3918 4.41065 
21.5949 21.5373 7.10132 
24.4646 21.4251 7.15632 
21.7783 24.5803 7.20776 
23.1431 22.9478 5.74837 
24.4586 24.345 7.4 
27.1034 21.5363 4.64783 
27.1592 24.4035 4.49158 
27.3478 21.3254 7.10159 
25.8614 22.9575 5.967 
27.4346 24.4478 7.31342 
1.3265 27.1656 4.45744 
2.83604 28.6269 5.87996 
1.27949 27.0586 7.1533 
2.80259 25.9406 5.82745 
4.4459 27.2047 4.22278 
7.3337 27.3014 4.28365 
4.41617 27.3315 7.11275 
5.79428 25.7994 5.73107 
7.09905 27.3907 7.21079 
10.0173 27.1978 4.24732 
11.5718 28.6911 5.66589 
8.64157 25.8981 5.83058 
9.99805 27.3333 7.17307 
11.364 25.8176 5.67741 
13.028 27.2572 4.32671 
15.8549 27.0971 4.28115 
13.0365 27.221 7.07017 
14.4287 25.7651 5.58892 
15.7881 27.2218 7.34947 
18.7801 27.3504 4.39103 
17.1415 25.9676 5.8387 
18.7436 27.3459 7.1403 
20.2291 25.8949 5.86504 
21.6803 27.1743 4.33911 
24.4389 27.3725 4.44252 
21.5399 27.3888 7.20502 
23.0465 25.7543 5.70283 
24.4013 27.1306 7.15241 
27.2565 27.4014 4.47563 
28.7008 28.6984 5.68347 
28.6876 25.5503 5.62868 
25.8837 25.7538 5.87987 
27.1268 27.2723 7.0738 
0.0741828 2.75294 8.60319 
2.88945 2.79874 8.45475 
1.49619 1.27397 9.886 
0.0854666 2.777 11.4692 
2.89768 2.92151 11.6234 
2.91831 0.121449 11.327 
0.100792 0.135252 11.4193 
5.77503 2.84284 8.54923 
5.76517 0.176262 8.65368 
4.36786 1.43831 9.9874 
7.16112 1.44224 10.0786 
5.78764 0.0381078 11.436 
5.73276 2.70655 11.4573 
8.61028 2.88905 8.63624 
11.579 3.04014 8.59826 
8.54155 0.0374022 8.5385 
8.68137 0.0239895 11.4723 
9.99383 1.63018 9.96564 
8.60226 3.06305 11.5175 
11.4629 2.91083 11.5097 
14.3513 2.85187 8.59695 
14.3957 0.111661 11.4818 
12.6864 1.31469 9.77455 
15.8628 1.46952 10.0288 
14.3847 3.00643 11.3372 
17.1887 2.90856 8.58362 
20.0707 2.87803 8.63093 
20.1254 0.102449 8.62394 
20.1818 0.060258 11.3697 
18.5883 1.47818 10.0348 
17.144 2.87693 11.4966 
20.1597 2.9001 11.3621 
23.2257 2.85306 8.63934 
23.0707 0.0841992 11.4469 
21.7828 1.58089 9.99642 
24.4778 1.41171 9.93491 
23.1189 2.92087 11.6028 
26.013 2.74808 8.75686 
27.2923 1.22493 10.0207 
26.1157 0.0367704 11.4695 
25.7871 2.84166 11.5848 
2.78691 5.63754 8.62898 
1.52651 4.28199 10.0068 
1.42977 7.09814 10.1152 
0.167618 5.61147 11.4496 
2.98651 5.72323 11.5712 
5.6344 5.77592 8.65298 
4.31152 4.21895 10.0481 
7.04486 4.34837 10.0604 
4.21595 7.05692 10.0176 
7.24018 7.34413 10.0056 
5.84549 5.80515 11.522 
8.62414 5.69908 8.78269 
11.3786 5.9565 8.63387 
10.1005 4.32218 9.93006 
9.90605 7.28656 10.1488 
8.79324 5.7568 11.3725 
11.5386 5.82747 11.3883 
14.2819 5.81271 8.75487 
12.9033 4.31769 10.1426 
15.7464 4.35994 10.0125 
12.8962 7.30374 10.0395 
15.7065 7.29942 10.1639 
14.2887 5.70308 11.5427 
17.1918 6.0002 8.68482 
20.1099 5.808 8.6205 
18.6637 4.31542 10.0746 
18.58 7.31106 10.1456 
17.2455 5.5972 11.5311 
20.1383 5.88083 11.4933 
23.2602 5.55322 8.6566 
21.6296 4.31413 10.0277 
24.5618 4.3235 10.2312 
21.6364 7.17925 10.0011 
23.029 5.64655 11.4836 
28.6969 5.76321 8.52259 
25.9349 5.60174 8.73518 
24.6441 7.25871 10.2424 
27.2558 4.32065 10.1487 
27.431 7.19453 10.0906 
26.0713 5.61069 11.5733 
0.0864264 8.65359 8.59953 
2.83994 8.60425 8.76662 
0.049364 11.4706 8.54903 
2.8583 11.4389 8.61309 
1.35988 10.1773 10.0819 
0.177478 8.39321 11.5218 
2.87887 8.50163 11.4282 
0.133444 11.3822 11.4785 
2.8305 11.3438 11.484 
5.62047 8.66308 8.69439 
5.70689 11.5087 8.55403 
4.1812 10.0237 10.2577 
7.04791 10.1309 9.93531 
5.61578 8.5168 11.3904 
5.69995 11.472 11.5158 
8.50455 8.62299 8.36598 
11.4163 8.67164 8.6079 
8.55814 11.5994 8.41497 
11.6124 11.471 8.64369 
9.982 10.0594 9.95708 
8.49977 8.93649 11.3135 
11.4009 8.58872 11.456 
8.55569 11.3379 11.2888 
11.4333 11.4426 11.5177 
14.3782 8.7075 8.68414 
14.3331 11.3793 8.77733 
12.9668 10.0741 10.1869 
15.754 10.1872 10.0649 
14.3381 8.58741 11.4495 
14.3453 11.5829 11.4552 
17.0405 8.64175 8.75087 
19.9698 8.6349 8.64763 
17.3224 11.5003 8.76632 
20.1342 11.4614 8.63298 
18.7497 10.0175 10.1877 
17.3137 8.58267 11.4937 
20.4377 8.49427 11.5243 
17.2696 11.4831 11.5975 
20.1142 11.4584 11.5334 
23.2082 8.68762 8.59878 
22.9595 11.5624 8.48553 
21.6587 9.9461 10.0249 
23.1798 8.70249 11.3773 
23.0721 11.3794 11.2539 
26.0928 8.54302 8.58873 
25.9417 11.609 8.66905 
24.6215 10.0096 10.2172 
27.4777 9.99193 10.2518 
26.0975 8.59465 11.5855 
26.0023 11.4552 11.6765 
0.0707173 14.3026 8.42374 
3.00255 14.3562 8.72385 
1.5173 12.9592 10.0823 
1.51741 15.8834 9.93537 
0.129846 14.5219 11.4815 
3.06913 14.3917 11.4744 
5.75817 14.4512 8.74412 
4.15221 13.0496 10.1749 
7.09901 12.9685 10.1243 
4.22073 15.8594 10.0726 
7.18572 15.7746 10.1702 
5.70887 14.4178 11.5283 
8.5105 14.3419 8.74068 
11.3886 14.3007 8.65211 
10.0816 12.8756 9.77292 
10.1808 15.8817 10.0543 
8.56556 14.3364 11.3142 
11.3806 14.3631 11.517 
14.3228 14.2472 8.65403 
12.9029 12.8819 10.1344 
15.8091 12.9301 10.0593 
12.8009 15.7843 10.0001 
15.7675 15.8405 10.1284 
14.4336 14.3733 11.4766 
17.2599 14.466 8.55222 
20.1679 14.1735 8.59397 
18.711 12.8498 10.0742 
18.6666 15.8336 10.0988 
17.1781 14.1368 11.4693 
20.4051 14.5358 11.3909 
22.9759 14.4143 8.54449 
21.6117 12.8709 10.0951 
21.7417 15.8591 9.89414 
24.4792 15.619 10.0466 
23.103 14.327 11.5635 
25.9806 14.184 8.65531 
24.6137 12.823 10.2784 
27.5552 12.8512 10.0565 
27.3076 15.5808 10.0655 
25.874 14.3403 11.6292 
2.90871 17.3405 8.62665 
2.9267 20.2338 8.50048 
1.48253 18.7514 9.86572 
0.088092 17.262 11.405 
3.00805 17.243 11.4337 
3.026 20.1244 11.3504 
5.65922 17.3485 8.60397 
5.74187 19.9422 8.53959 
4.40394 18.6262 9.9667 
7.25945 18.6596 10.1933 
5.77891 17.0253 11.2925 
5.88058 20.1349 11.3714 
8.37621 17.2061 8.54327 
11.4982 17.3955 8.64139 
8.48439 20.0138 8.67228 
11.4071 20.2279 8.47227 
10.1897 18.8542 9.86221 
8.83016 17.15 11.3439 
11.3709 17.265 11.5676 
8.53599 20.154 11.5258 
11.3843 20.1608 11.5052 
14.2581 17.1441 8.73466 
14.442 20.113 8.62207 
12.9777 18.6886 9.98342 
15.8019 18.5314 10.0334 
14.3859 17.1908 11.5484 
14.329 20.0788 11.6205 
17.3741 16.97 8.66801 
20.1617 17.3745 8.86887 
17.3737 20.2873 8.51649 
20.1869 20.2523 8.63144 
18.487 18.766 10.1445 
17.2558 17.1651 11.5788 
20.3142 17.2513 11.4899 
17.1277 20.0366 11.6034 
20.0475 20.1789 11.397 
23.1115 17.2275 8.51 
22.8907 20.0578 8.65259 
21.7153 18.5341 10.1194 
24.4652 18.5062 10.0645 
23.2205 17.0515 11.4155 
22.894 20.1666 11.4591 
28.6756 17.2111 8.70214 
28.6681 20.005 8.53318 
25.9337 17.1782 8.56266 
25.8857 20.0975 8.52742 
28.6875 20.025 11.4497 
27.2854 18.5703 10.05 
26.0407 17.2533 11.4293 
25.9193 20.0602 11.5598 
3.16804 22.9732 8.60799 
1.22822 21.3227 10.0363 
1.50108 24.1571 10.0798 
0.103966 22.9029 11.3655 
2.8877 22.6048 11.3937 
5.94845 23.1514 8.63826 
4.48357 21.4824 9.88023 
7.38009 21.5603 9.8244 
4.15024 24.3001 10.1294 
7.25976 24.5087 9.999 
5.86306 22.9511 11.4434 
8.73896 22.9954 8.56359 
11.5505 23.0114 8.6778 
10.1268 21.411 9.99335 
8.75442 22.858 11.4188 
11.5091 22.9742 11.372 
14.3371 22.9787 8.73482 
12.9732 21.4862 10.0901 
15.7753 21.4851 10.1619 
13.0009 24.4566 10.1786 
15.82 24.3435 10.092 
14.5948 22.9477 11.5734 
17.2853 23.0541 8.51496 
20.1903 23.1445 8.47854 
20.0948 22.923 11.4384 
17.3305 22.9837 11.6038 
18.7957 21.6407 9.89763 
18.6926 24.3828 10.059 
23.2274 22.9193 8.60046 
22.9301 23.115 11.2922 
24.5522 24.0995 10.0245 
21.6548 24.4578 10.0127 
24.3842 21.349 10.0237 
21.61 21.4899 10.0416 
28.6649 22.9389 8.60774 
26.0014 22.8049 8.70405 
25.6687 22.7679 11.5672 
27.2524 24.283 10.2706 
27.1275 21.383 10.0599 
0.00758038 28.5136 8.57341 
2.76111 28.607 8.55526 
0.026392 25.7177 8.76058 
2.83333 25.9534 8.61442 
2.82436 25.8124 11.5646 
0.0178117 25.792 11.5235 
1.5088 27.1568 10.1514 
5.77547 25.8138 8.53002 
5.77432 25.759 11.3444 
7.03271 27.2987 10.1884 
4.1425 27.3431 10.033 
11.5078 28.5389 8.44684 
8.5128 25.936 8.55818 
11.4621 25.8611 8.6144 
11.5004 25.7002 11.4765 
8.55102 25.8752 11.5369 
9.98661 27.2636 10.0724 
11.5308 28.704 11.5359 
9.99568 24.6788 9.96754 
14.431 28.6462 8.57887 
14.4317 25.8731 8.65846 
14.4799 25.763 11.5551 
15.7991 27.354 10.2991 
13.0326 27.4599 10.0128 
17.1772 28.676 8.74327 
17.2332 25.8919 8.58227 
20.216 25.8281 8.50873 
17.2466 25.7614 11.4669 
18.6576 27.1036 9.9969 
17.3825 28.6457 11.5369 
20.176 25.6791 11.5331 
23.0211 28.563 8.69843 
23.144 25.8767 8.90215 
21.6353 27.3648 10.1853 
24.4951 27.4081 10.0762 
22.9456 25.8395 11.5665 
25.7842 28.5725 8.68506 
25.8067 25.9062 8.66542 
27.3713 27.2472 10.0798 
25.9397 25.7683 11.5132 
1.56038 1.55372 12.7894 
2.89985 2.86906 14.1477 
1.55944 1.57676 15.742 
2.80236 0.00900627 14.4687 
0.0851067 3.00119 14.3899 
4.47247 1.52758 12.8959 
7.21024 1.46461 12.8435 
4.22175 1.40937 15.7385 
7.1958 1.43609 15.6444 
5.85011 2.81724 14.4138 
10.1284 1.6141 12.8494 
8.95111 0.156597 14.2228 
8.70779 2.97765 14.2425 
10.0067 1.39567 15.9796 
11.5767 0.0304448 14.4191 
11.4367 2.87932 14.4708 
12.9121 1.51021 12.9001 
15.7743 1.44942 12.9229 
13.0646 1.48705 15.7782 
15.8347 1.2539 15.8912 
14.4354 2.81119 14.4434 
18.6403 1.44997 12.828 
17.2358 2.79912 14.1912 
20.2057 2.97708 14.2263 
18.8169 1.72933 15.6746 
17.2802 0.0613638 14.3645 
20.0042 0.0690964 14.4184 
21.5899 1.5618 12.897 
24.4696 1.39937 12.899 
23.063 0.00800336 14.2443 
23.0687 2.75191 14.3271 
21.5007 1.45578 15.6392 
24.3305 1.67618 15.873 
28.644 0.221076 14.353 
27.3321 1.45896 12.9287 
27.1406 1.45563 15.6861 
25.8667 2.92633 14.4237 
1.50772 4.423 12.945 
1.63109 6.96453 12.8505 
0.09599 5.89097 14.3315 
1.52496 4.56846 15.8833 
1.56092 7.36069 15.8788 
3.04522 5.71997 14.4112 
4.41589 4.214 12.9794 
7.11107 4.23846 12.9522 
4.31546 7.21806 12.9101 
7.25806 7.19243 12.9045 
5.7652 5.69567 14.2601 
4.37345 4.23057 15.6998 
7.12642 4.3258 15.8355 
4.58448 7.10716 15.7327 
7.1653 7.05365 15.6124 
10.1155 4.48181 12.9667 
9.83629 7.19299 12.8077 
8.64267 5.74557 14.1634 
10.1223 4.37651 15.7373 
9.86357 7.2006 15.934 
11.6747 5.74172 14.4962 
13.161 4.42815 13.0916 
15.8102 4.31609 13.0103 
12.8829 7.0759 12.8873 
15.6327 7.17072 13.167 
12.9593 4.21295 15.794 
15.9235 4.31863 15.782 
13.0947 7.12636 16.0618 
15.9086 7.27991 15.8586 
14.4359 5.78723 14.4254 
18.8087 4.35667 12.8356 
18.6149 7.2342 12.817 
20.1662 5.6948 14.305 
18.6458 4.34047 15.722 
18.5306 7.26305 15.6373 
17.3473 5.6234 14.3617 
21.542 4.32768 12.8321 
24.5598 4.2655 12.9144 
21.6168 7.07122 13.1883 
24.4682 7.01227 12.7845 
23.0502 5.38641 14.2638 
21.4876 4.25354 15.7639 
24.4663 4.21956 15.8104 
21.5248 7.06449 15.8659 
24.3885 7.13225 15.7674 
27.3837 4.2409 12.8703 
27.2926 7.00414 13.0895 
27.3442 4.3671 15.7663 
27.2903 7.20638 15.7906 
25.9337 5.73599 14.4399 
1.46546 9.98149 12.9794 
2.96567 8.59646 14.2769 
1.54354 10.0126 15.8911 
0.00998566 8.61736 14.451 
0.0359082 11.3389 14.4288 
3.12372 11.2703 14.4191 
4.45664 9.97809 12.8728 
6.99198 10.0021 12.8588 
4.42933 9.97639 15.8926 
7.1397 10.1551 15.7154 
5.95766 8.50485 14.4276 
5.57935 11.6677 14.4471 
10.1353 10.0782 12.8269 
11.4597 8.6615 14.24 
11.4719 11.4736 14.3497 
8.76993 8.77288 14.1507 
8.50589 11.4241 14.264 
10.079 9.95037 15.8407 
13.0596 10.0908 12.9731 
15.6786 10.0297 12.7532 
14.2048 11.5213 14.2549 
12.9367 10.1452 15.7256 
15.8289 10.195 15.7052 
14.3658 8.5397 14.4817 
17.251 11.3163 14.3062 
18.7547 10.0998 13.0237 
20.2772 8.57952 14.2732 
18.6354 10.1191 15.6878 
20.0442 11.4346 14.4086 
16.9883 8.70016 14.3938 
21.5164 10.2077 12.9249 
24.5038 10.0309 12.9218 
23.0016 8.62521 14.257 
21.4448 10.0029 15.8737 
24.5174 10.0952 15.7463 
23.2149 11.5532 14.5917 
27.2584 9.84236 13.0754 
25.7259 8.60768 14.3521 
27.2565 9.93392 16.048 
26.1443 11.3891 14.4938 
1.65756 13.0102 12.8622 
1.54185 15.8462 12.9703 
0.00270007 14.3605 14.2905 
2.81611 14.4339 14.2229 
1.41531 12.8702 15.5673 
1.5288 15.753 15.8087 
4.28046 12.9454 12.9088 
7.1827 12.8459 12.872 
4.36272 15.7447 12.8967 
7.32875 15.8462 12.6509 
5.74906 14.291 14.1688 
4.24963 13.0939 15.8044 
7.32813 13.1372 15.5917 
4.36735 15.7288 15.6721 
7.31302 15.7459 15.8159 
11.0794 14.2317 14.2627 
8.61756 14.3525 14.2386 
9.86952 12.9108 12.8461 
9.97188 15.7621 12.8714 
9.95281 12.7144 15.7748 
9.85529 15.8497 15.7886 
14.0986 14.256 14.1663 
12.8148 12.8282 12.7759 
15.7456 12.9287 13.003 
12.7157 15.7444 12.8328 
15.9187 15.8128 12.7808 
12.7719 12.9979 15.6884 
15.6475 12.6702 15.5763 
12.6381 15.6768 15.7702 
15.8048 15.2571 15.1511 
20.1671 14.2423 14.2915 
17.5407 14.2072 14.2166 
18.9547 12.8401 12.7732 
18.7161 15.9081 13.0352 
18.6323 12.6094 15.6609 
18.6358 15.7874 15.6415 
21.7168 12.9126 13.0245 
24.4524 12.751 13.0713 
21.6564 15.8088 12.968 
24.5437 15.7442 12.9516 
21.6657 12.8858 15.923 
24.5199 12.8064 15.8392 
21.5764 15.7576 15.8614 
24.4396 15.6673 15.7898 
23.075 14.442 14.4306 
27.415 12.8989 13.084 
27.4409 15.7958 12.8349 
25.8482 14.3231 14.3332 
27.3587 12.774 15.694 
27.5072 15.7303 15.7206 
1.481 18.6919 12.7874 
0.0155428 17.1704 14.258 
1.39317 18.7085 15.8112 
2.9646 20.288 14.3942 
0.127104 20.1357 14.3957 
2.95712 17.1925 14.4654 
4.30105 18.5974 13.0516 
7.00353 18.5274 12.7236 
5.72841 17.1466 14.2743 
4.33754 18.644 15.6873 
7.15847 18.5583 15.6877 
5.82151 20.0231 14.4306 
11.5108 20.0176 14.1633 
9.88207 18.7498 12.8233 
8.74586 17.1951 14.1798 
11.4499 17.2318 14.3095 
10.2185 18.6561 15.6005 
8.53152 20.1115 14.464 
14.3974 20.1662 14.3228 
12.9629 18.6261 12.9279 
15.7056 18.4086 12.9299 
12.9065 18.8142 15.8751 
14.2592 17.1045 14.5343 
15.7787 18.7101 15.6682 
20.2775 20.3004 14.0813 
17.2926 20.0874 14.2049 
18.8164 18.6768 13.0388 
20.1561 17.1689 14.3152 
17.2209 17.2108 14.4787 
18.7602 18.9271 15.4091 
21.7657 18.5502 12.9868 
21.6266 18.7388 15.7688 
24.5818 18.5445 15.7343 
23.1346 19.9968 14.5238 
23.1459 17.0644 14.4439 
24.6161 18.6254 12.9254 
27.4644 18.6519 12.9553 
26.0328 17.0072 14.3104 
27.3557 18.4989 15.8745 
26.0427 20.0859 14.421 
2.92891 22.9054 14.2966 
1.42741 21.4421 12.9335 
1.45299 24.2371 12.925 
1.40537 21.6842 15.7136 
1.43537 24.4005 15.6172 
5.82223 22.8979 14.3344 
4.32582 21.555 12.9912 
7.31304 21.5196 12.9859 
4.33499 24.23 12.9635 
7.14352 24.3331 12.7944 
4.35832 21.5534 15.8073 
7.42317 21.6972 15.9061 
4.31946 24.3219 15.7883 
7.18086 24.3125 15.7065 
10.0873 21.5723 12.9374 
10.0741 24.4371 13.096 
9.97974 21.5714 15.7404 
9.96047 24.3735 15.8554 
11.5407 22.9319 14.4195 
8.66231 23.1045 14.4052 
13.0888 21.6301 12.8315 
15.9252 21.6374 13.1581 
12.8669 24.5164 13.143 
15.7434 24.5304 13.1396 
12.9444 21.3836 15.8083 
15.8445 21.6265 15.8193 
13.0582 24.3625 15.8108 
15.8568 24.2992 15.7707 
14.366 22.9029 14.4726 
18.8574 24.4069 12.922 
18.7257 21.4999 12.9132 
18.5287 21.4668 15.9033 
18.6144 24.5741 15.7927 
17.3533 23.156 14.5038 
20.3032 22.9137 14.3578 
24.2774 24.2665 12.8995 
21.5316 24.3555 12.9296 
24.4909 21.3988 12.9537 
21.8815 21.5687 13.0995 
21.7532 21.5544 15.8933 
24.5149 21.612 15.9535 
21.6458 24.4676 15.8791 
24.5786 24.4404 15.9102 
23.15 22.9686 14.4716 
27.2057 24.2158 12.7736 
27.4725 21.4874 12.9499 
28.6479 23.0132 14.2658 
27.3783 21.494 15.8673 
27.2989 24.4463 15.7343 
25.721 22.9719 14.4336 
1.65581 27.252 12.9522 
0.103495 25.8843 14.2104 
2.98558 25.6482 14.2509 
1.52426 27.2329 15.7997 
5.76824 28.7101 14.2933 
7.17593 27.1217 13.0132 
4.36267 27.253 12.8876 
5.81832 25.8097 14.3039 
4.35617 27.3735 15.6745 
7.06859 27.3817 15.7916 
10.1858 27.2212 12.8861 
10.0991 27.243 15.7962 
8.57192 25.965 14.5428 
11.5076 25.9519 14.4354 
15.9086 27.4544 12.811 
12.8389 27.3043 12.7721 
14.4703 26.0955 14.3366 
14.335 28.6942 14.1992 
13.0668 27.2637 15.6796 
15.9904 27.3375 15.829 
18.8608 27.3119 12.9654 
20.0315 25.9031 14.2908 
17.132 25.9765 14.2448 
18.7387 27.4134 15.8573 
21.6705 27.312 12.9451 
24.4826 27.2128 12.972 
21.4487 27.2175 15.8356 
23.1192 25.9012 14.6047 
27.4898 27.2815 13.0153 
25.938 28.6097 14.2593 
24.6226 27.3468 15.655 
27.1065 27.2296 15.6874 
25.867 25.7401 14.3998 
1.49749 1.24921 18.5664 
2.92154 2.94314 17.1438 
2.84539 2.84288 20.1886 
4.40648 1.52603 18.5671 
5.77091 0.0868862 17.1967 
7.16082 1.44925 18.6749 
5.73467 2.98016 17.3273 
5.70704 2.92247 20.2251 
9.90577 1.4837 18.5331 
8.48875 2.86224 17.1327 
11.4306 2.82627 17.3194 
11.4065 0.0400931 20.0272 
8.50979 2.81933 20.1032 
11.4775 2.98761 19.8052 
12.9596 1.42518 18.6578 
16.0112 1.4961 18.7911 
14.5064 2.87528 17.2165 
14.1942 2.80875 20.144 
18.6188 1.75444 18.7104 
20.0363 0.145235 17.2994 
17.2608 2.86296 17.0539 
20.0992 2.95105 17.2838 
17.357 0.0812114 17.1318 
20.0565 0.000868846 19.9457 
17.0976 3.17463 20.103 
20.2128 2.98077 20.1877 
21.4728 1.40136 18.7902 
22.9548 0.00040638 17.1108 
24.4416 1.51209 18.4567 
22.9439 2.80446 17.2575 
23.0095 0.0655711 19.9996 
22.9224 2.96346 19.9951 
28.7062 2.82529 17.2036 
25.9364 0.0526066 17.1723 
27.1142 1.37155 18.6766 
25.9852 2.81619 17.2089 
28.5803 0.0544352 20.1235 
28.7054 2.60827 20.1579 
25.8415 2.99563 20.0043 
1.44678 4.22664 18.7713 
0.0183356 5.71501 17.2772 
1.49807 7.20372 18.7998 
3.03937 5.96075 17.3241 
4.08418 4.1917 18.5958 
2.85063 5.64642 19.9817 
7.19317 4.51923 18.6262 
4.43476 7.29952 18.8203 
5.77732 5.50773 17.1416 
7.14463 7.10463 18.7556 
5.81214 5.68621 20.122 
10.0117 4.37642 18.6663 