ITEM: TIMESTEP
20041
ITEM: NUMBER OF ATOMS
2001
ITEM: BOX BOUNDS pp pp pp
0.0000000000000000e+00 2.8712000000000000e+01
0.0000000000000000e+00 2.8712000000000000e+01
0.0000000000000000e+00 2.8712000000000000e+01
ITEM: ATOMS x y z c_cna 
1.43568 1.43372 1.43536 3 
2.87114 2.8694 2.87063 3 
0.00112786 2.86956 2.86982 3 
2.87024 2.86956 0.000921507 3 
0.000262067 2.86945 7.77046e-05 3 
4.30581 1.43387 1.43611 3 
7.1765 1.43418 1.43633 3 
5.74139 2.86952 2.87106 3 
5.74064 2.86982 0.00151158 3 
10.0478 1.43446 1.43616 3 
8.61221 2.86971 2.87101 3 
11.4836 2.86985 2.87071 3 
11.4836 2.87009 0.00131446 3 
8.61182 2.87002 0.00158949 3 
12.9196 1.43459 1.43577 3 
15.7915 1.43464 1.43528 3 
14.3554 2.86996 2.87027 3 
14.3556 2.87008 0.000853639 3 
18.6635 1.43464 1.43481 3 
17.2274 2.87002 2.86981 3 
20.0994 2.87004 2.86936 3 
17.2276 2.87003 0.000360844 3 
21.5353 1.43455 1.4344 3 
24.4068 1.43433 1.43427 3 
22.9713 2.87001 2.86907 3 
27.2776 1.43396 1.43459 3 
25.8426 2.86983 2.86917 3 
1.43569 4.3051 1.43538 3 
1.43565 7.17649 1.43542 3 
2.87111 5.74074 2.87066 3 
0.00112285 5.74059 2.86982 3 
2.8702 5.74069 0.000948077 3 
0.000269608 5.74079 0.000109023 3 
4.30577 4.3051 1.4361 3 
7.17647 4.30515 1.43636 3 
4.3057 7.17637 1.43618 3 
7.1764 7.17609 1.43643 3 
5.74134 5.74069 2.87108 3 
5.74058 5.74048 0.00155463 3 
10.0478 4.30514 1.43618 3 
10.0478 7.17581 1.43626 3 
8.61219 5.74051 2.87105 3 
11.4836 5.74032 2.87075 3 
11.4836 5.74023 0.00139492 3 
8.61179 5.74033 0.00164409 3 
12.9196 4.30511 1.43583 3 
15.7915 4.30507 1.43533 3 
12.9196 7.1756 1.43587 3 
15.7916 7.17552 1.43538 3 
14.3555 5.74016 2.87033 3 
14.3556 5.74017 0.000901824 3 
18.6635 4.30505 1.43486 3 
18.6635 7.1755 1.43488 3 
17.2274 5.74007 2.86985 3 
20.0994 5.74004 2.86936 3 
17.2276 5.74019 0.000391157 3 
21.5353 4.30508 1.43447 3 
21.5353 7.17564 1.43447 3 
22.9713 5.74013 2.86909 3 
24.4067 7.17588 1.43431 3 
24.4068 4.3051 1.43432 3 
27.2776 4.30511 1.43462 3 
27.2775 7.17626 1.43464 3 
25.8426 5.74032 2.8692 3 
1.43555 10.048 1.43548 3 
2.87109 8.61227 2.87079 3 
2.87113 11.4838 2.87099 3 
0.000999523 8.61197 2.86991 3 
0.000767244 11.4835 2.87013 3 
2.87017 8.61212 0.000941977 3 
2.87024 11.4836 0.000799806 3 
0.000135679 8.61226 6.63943e-05 3 
4.30586 10.0479 1.43622 3 
7.17658 10.0475 1.43648 3 
5.7414 8.6121 2.8712 3 
5.74174 11.4837 2.87136 3 
5.74075 11.4832 0.00154411 3 
5.74042 8.61151 0.00171861 3 
10.048 10.0471 1.43627 3 
8.61227 8.61165 2.87105 3 
11.4837 8.61122 2.87066 3 
8.61268 11.4833 2.87122 3 
11.4841 11.4828 2.87085 3 
8.61182 11.4825 0.00173965 3 
11.4837 11.4822 0.00135195 3 
11.4836 8.61082 0.0015594 3 
8.61166 8.61103 0.00187707 3 
14.3557 8.61079 0.00106852 3 
12.9198 10.0469 1.43585 3 
15.7916 10.0467 1.43539 3 
14.3555 8.61091 2.87022 3 
14.3557 11.4825 2.87044 3 
14.3558 11.4822 0.000814627 3 
17.2277 8.61086 0.000533332 3 
18.6635 10.0467 1.43492 3 
17.2275 8.61069 2.86972 3 
20.0995 8.61062 2.86923 3 
17.2276 11.4822 2.86998 3 
20.0995 11.4821 2.86945 3 
20.0995 8.61111 5.84952e-05 3 
17.2277 11.4824 0.00033398 3 
21.5352 10.0469 1.4345 3 
24.4065 10.0473 1.43433 3 
22.9714 8.61077 2.86891 3 
22.9713 11.4823 2.86907 3 
27.2772 10.0478 1.43469 3 
25.8427 8.61126 2.86909 3 
25.8423 11.483 2.86932 3 
1.43547 12.9194 1.43551 3 
1.43544 15.7904 1.4355 3 
2.87123 14.355 2.87116 3 
2.87033 14.3548 0.00066761 3 
0.000585756 14.3548 2.8703 3 
4.3061 12.9193 1.43619 3 
7.17709 12.9191 1.4364 3 
4.30628 15.7904 1.4362 3 
7.17754 15.7903 1.43631 3 
5.74214 14.355 2.87152 3 
5.74113 14.3547 0.00129713 3 
10.0485 12.9187 1.43619 3 
10.0491 15.7902 1.43608 3 
8.61333 14.3548 2.8714 3 
11.4848 14.3545 2.87123 3 
8.6125 14.3544 0.00127641 3 
11.4841 14.3539 0.000785247 3 
12.9201 12.9185 1.4358 3 
15.7917 12.9184 1.43538 3 
12.9206 15.79 1.43573 3 
15.7918 15.7898 1.43538 3 
14.3562 14.3542 2.87099 3 
14.3558 14.3539 0.000182442 3 
18.6633 12.9184 1.43497 3 
18.6629 15.7899 1.43501 3 
17.2276 14.3539 2.8706 3 
20.0992 14.3539 2.87001 3 
21.5348 12.9186 1.43459 3 
24.406 12.9189 1.43444 3 
21.5342 15.7901 1.43469 3 
22.9706 14.3543 2.86954 3 
24.4055 15.7903 1.4345 3 
27.2769 12.9192 1.43474 3 
27.2767 15.7903 1.43476 3 
25.8418 14.3546 2.8696 3 
1.43544 18.6611 1.43547 3 
2.8713 17.2258 2.87123 3 
2.87128 20.0965 2.87121 3 
0.000491462 17.2258 2.87039 3 
2.87038 20.0965 0.000514434 3 
0.000499485 20.0966 2.87035 3 
2.87036 17.2257 0.000560786 3 
4.30634 18.6611 1.43614 3 
7.17768 18.6611 1.43624 3 
5.74236 17.2258 2.87157 3 
5.74233 20.0965 2.87153 3 
5.74133 17.2257 0.00113115 3 
5.74135 20.0965 0.00108552 3 
10.0494 18.6611 1.43598 3 
8.61376 17.2258 2.87148 3 
11.4854 17.2257 2.87143 3 
8.61373 20.0965 2.87143 3 
11.4854 20.0966 2.87141 3 
11.4847 20.0967 0.000270392 3 
8.61298 20.0966 0.000912968 3 
11.4847 17.2255 0.000342552 3 
8.61299 17.2256 0.000991691 3 
12.9209 18.6611 1.43568 3 
15.7918 18.6611 1.43533 3 
14.3568 17.2256 2.87145 3 
14.3567 20.0967 2.8714 3 
18.6626 18.6612 1.435 3 
17.2276 17.2254 2.87106 3 
20.0986 17.2255 2.87039 3 
17.2276 20.097 2.87105 3 
20.0986 20.0969 2.8704 3 
21.5339 18.6612 1.43469 3 
24.4054 18.6612 1.43451 3 
22.9701 17.2257 2.86979 3 
22.9701 20.0968 2.86978 3 
27.2766 18.6612 1.43474 3 
25.8416 17.2257 2.86971 3 
25.8416 20.0967 2.86971 3 
1.43548 21.5319 1.43543 3 
1.43556 24.4029 1.43539 3 
2.87125 22.9673 2.87106 3 
2.87036 22.9674 0.000559257 3 
0.000646183 22.9675 2.87023 3 
4.30615 24.4029 1.43608 3 
4.30629 21.5319 1.43608 3 
7.17753 21.5319 1.4362 3 
5.74213 22.9673 2.87141 3 
7.17711 24.4031 1.43624 3 
5.74112 22.9675 0.00116491 3 
10.0491 21.5321 1.43596 3 
8.61332 22.9675 2.87129 3 
11.4847 22.9677 2.87111 3 
10.0485 24.4035 1.43604 3 
8.6125 22.9678 0.00112174 3 
11.4841 22.9682 0.000627834 3 
12.9206 21.5323 1.43563 3 
15.7917 21.5324 1.4353 3 
14.3561 22.9681 2.8709 3 
12.92 24.4037 1.43566 3 
15.7916 24.4039 1.43526 3 
14.3558 22.9683 4.45461e-05 3 
18.6628 21.5324 1.43493 3 
18.6632 24.4039 1.43485 3 
17.2276 22.9684 2.87053 3 
20.0991 22.9685 2.86994 3 
21.5341 21.5323 1.43465 3 
24.4056 21.5322 1.43446 3 
21.5348 24.4037 1.43447 3 
22.9706 22.9681 2.8695 3 
24.4061 24.4034 1.43436 3 
27.2767 21.532 1.43468 3 
27.277 24.4031 1.43463 3 
25.8419 22.9678 2.86954 3 
0.00105871 28.7102 2.86988 3 
2.87116 28.7099 2.87074 3 
1.43562 27.2742 1.4354 3 
2.87123 25.8385 2.8709 3 
0.000864342 25.8387 2.87005 3 
2.87032 25.8387 0.000696473 3 
2.87026 28.7102 0.000874862 3 
5.74151 28.7101 2.87112 3 
4.30594 27.2743 1.4361 3 
7.17665 27.2748 1.43636 3 
5.7418 25.8386 2.87125 3 
5.74054 28.7108 0.00162874 3 
5.74077 25.8391 0.00141391 3 
8.61231 28.7105 2.87096 3 
8.61174 28.7113 0.00175106 3 
11.4837 28.711 2.87058 3 
10.048 27.2751 1.43612 3 
8.6127 25.8389 2.87108 3 
11.484 25.8394 2.87071 3 
8.61185 25.8397 0.00159968 3 
11.4837 25.8399 0.00119261 3 
11.4836 28.7114 0.00143233 3 
14.3554 28.7112 2.87011 3 
12.9197 27.2754 1.43571 3 
15.7916 27.2755 1.43525 3 
14.3557 25.8398 2.87031 3 
14.3557 25.8399 0.000652309 3 
14.3557 28.7114 0.000942042 3 
20.0995 28.7115 2.86914 3 
17.2274 28.7114 2.86962 3 
18.6634 27.2755 1.43479 3 
17.2275 25.84 2.86986 3 
20.0995 25.8402 2.86934 3 
17.2276 25.8398 0.000181025 3 
17.2277 28.7113 0.000430116 3 
22.9714 28.7114 2.86885 3 
21.5352 27.2754 1.43439 3 
22.9713 25.84 2.86899 3 
24.4066 27.275 1.43427 3 
25.8427 28.7109 2.86904 3 
27.2773 27.2745 1.43462 3 
25.8424 25.8393 2.86926 3 
1.43652 1.43392 4.30526 3 
1.43681 1.4343 7.17587 3 
2.87161 2.86953 5.74073 3 
0.00181666 2.86981 5.74004 3 
4.30652 1.43377 4.30592 3 
7.17686 1.43408 4.30597 3 
4.30651 1.43416 7.17623 3 
7.1769 1.4345 7.17637 3 
5.74172 2.86958 5.7411 3 
10.0478 1.43454 4.30562 3 
10.0476 1.43516 7.17602 3 
8.61232 2.86984 5.74102 3 
11.4836 2.87009 5.74071 3 
12.9193 1.43491 4.30517 3 
15.7913 1.4352 4.30469 3 
12.9191 1.43567 7.17559 3 
15.7912 1.43605 7.17512 3 
14.3553 2.87026 5.74034 3 
14.355 0.000652447 5.73947 3 
18.6635 1.43539 4.30417 3 
18.6638 1.43639 7.17453 3 
17.2274 2.87043 5.73991 3 
20.0997 2.87054 5.73943 3 
17.2274 0.00117254 5.73882 3 
20.1002 0.00154285 5.73818 3 
21.5357 1.43546 4.30375 3 
24.4077 1.43525 4.30368 3 
21.5365 1.43664 7.17403 3 
24.4088 1.4364 7.17407 3 
22.9719 2.87054 5.73914 3 
22.9729 0.00151504 5.73785 3 
27.2786 1.43463 4.30429 3 
27.2793 1.43528 7.17501 3 
25.8435 2.87032 5.73931 3 
25.8443 0.000543389 5.73848 3 
1.43649 4.30506 4.30521 3 
1.43647 7.17621 4.30527 3 
1.43679 4.30505 7.17583 3 
1.43678 7.17581 7.17585 3 
2.87159 5.74058 5.74074 3 
0.0017938 5.74028 5.74005 3 
7.17686 4.30509 4.30602 3 
4.30647 4.30508 4.30587 3 
4.30643 7.17637 4.30594 3 
7.17679 7.1761 4.30597 3 
4.30646 7.17597 7.17621 3 
4.30657 4.30505 7.17623 3 
7.17697 4.30507 7.17643 3 
5.7417 5.74058 5.7411 3 
7.17687 7.17564 7.17633 3 
10.0479 4.30508 4.30582 3 
10.0478 7.17563 4.30565 3 
10.0479 4.30505 7.17634 3 
8.61229 5.7403 5.741 3 
10.0476 7.17496 7.17597 3 
11.4836 5.74002 5.7407 3 
15.7914 4.30502 4.30507 3 
12.9195 4.30504 4.30548 3 
12.9194 7.17519 4.30521 3 
15.7913 7.1749 4.30473 3 
12.9195 4.30505 7.17614 3 
15.7914 4.30502 7.17583 3 
12.9192 7.17442 7.17555 3 
14.3553 5.73978 5.74037 3 
15.7912 7.17402 7.17508 3 
18.6635 4.30503 4.30461 3 
18.6635 7.17468 4.30422 3 
18.6636 4.30502 7.17538 3 
17.2274 5.73961 5.73991 3 
18.6638 7.17364 7.1745 3 
20.0997 5.73951 5.73943 3 
21.5355 4.30502 4.30421 3 
24.4073 4.30504 4.30407 3 
21.5357 7.17464 4.30378 3 
24.4076 7.17486 4.30369 3 
21.536 4.305 7.17498 3 
21.5366 7.17342 7.17401 3 
22.9719 5.73952 5.73914 3 
24.4087 7.17367 7.17406 3 
24.4079 4.30501 7.17488 3 
27.2784 4.30505 4.30444 3 
27.2785 7.17551 4.30428 3 
27.2789 4.30505 7.17529 3 
25.8434 5.73979 5.73931 3 
27.2792 7.17483 7.175 3 
1.43633 10.0478 4.30554 3 
1.4367 10.0472 7.17607 3 
2.87154 8.61191 5.74091 3 
2.87156 11.4835 5.74135 3 
0.00158182 11.4829 5.74043 3 
0.00186616 8.61119 5.73999 3 
4.30655 10.0479 4.30621 3 
7.17703 10.0476 4.30617 3 
4.30652 10.0474 7.1765 3 
5.7417 8.61181 5.74119 3 
7.17692 10.0468 7.17643 3 
5.74204 11.4835 5.74166 3 
10.0479 10.0469 4.30564 3 
8.6121 8.61103 5.74075 3 
10.047 10.0453 7.17527 3 
11.4832 8.61015 5.74008 3 
8.61247 11.4827 5.74113 3 
11.4832 11.4816 5.7402 3 
12.9194 10.0462 4.30509 3 
15.7914 10.0457 4.30455 3 
12.9182 10.0438 7.1741 3 
14.355 8.60948 5.73946 3 
15.7908 10.0428 7.17314 3 
14.355 11.4806 5.73946 3 
18.6637 10.0453 4.30394 3 
17.2274 8.60893 5.73885 3 
18.6644 10.0418 7.17208 3 
20.1002 8.60857 5.73818 3 
17.2277 11.4798 5.7387 3 
20.1011 11.4792 5.73771 3 
21.5362 10.0452 4.30336 3 
24.408 10.0457 4.30336 3 
21.5385 10.0413 7.17122 3 
22.9729 8.60862 5.73784 3 
22.974 11.4795 5.73723 3 
24.4109 10.0425 7.17186 3 
27.2784 10.047 4.30441 3 
25.8443 8.60959 5.73849 3 
27.2795 10.0457 7.1746 3 
25.844 11.4816 5.73875 3 
1.43623 12.9192 4.30591 3 
1.43618 15.7903 4.30616 3 
1.43654 12.9189 7.17667 3 
1.43645 15.7902 7.1772 3 
2.87165 14.3549 5.74182 3 
0.00130809 14.3545 5.74092 3 
4.30682 12.9194 4.30657 3 
4.30702 15.7904 4.30684 3 
7.1776 12.9192 4.30659 3 
7.1781 15.7904 4.30691 3 
4.30683 12.9191 7.17713 3 
7.17764 12.9188 7.17725 3 
4.30712 15.7904 7.17771 3 
5.74256 14.3549 5.74224 3 
7.17841 15.7904 7.1781 3 
10.0486 12.9188 4.3062 3 
10.0494 15.7903 4.30675 3 
10.0476 12.9176 7.17603 3 
8.61336 14.3547 5.74195 3 
10.049 15.7901 7.1775 3 
11.4844 14.3541 5.74147 3 
12.92 12.9182 4.30581 3 
15.7918 12.9176 4.30543 3 
12.921 15.7901 4.30686 3 
15.7924 15.7895 4.30674 3 
12.9183 12.9158 7.1745 3 
15.7912 12.9142 7.17347 3 
12.9204 15.7895 7.1771 3 
14.356 14.3532 5.74119 3 
15.793 15.7877 7.17692 3 
18.664 12.9171 4.30476 3 
18.6639 15.7891 4.30599 3 
18.6658 12.9127 7.17197 3 
17.2284 14.3521 5.74056 3 
18.6667 15.7863 7.17518 3 
20.1014 14.3518 5.73918 3 
21.5362 12.9171 4.30395 3 
21.5353 15.7896 4.30497 3 
24.4074 12.9181 4.30399 3 
24.4068 15.7899 4.3045 3 
21.5408 12.9125 7.17042 3 
24.4101 12.9162 7.17275 3 
21.5378 15.789 7.17385 3 
22.9727 14.3533 5.73874 3 
24.409 15.7894 7.17391 3 
27.278 12.9188 4.30482 3 
27.2777 15.7901 4.30512 3 
27.2789 12.918 7.17527 3 
25.8434 14.354 5.73946 3 
27.2784 15.7899 7.17597 3 
1.43619 18.6611 4.30624 3 
1.43641 18.6611 7.17743 3 
2.87172 17.2258 5.7421 3 
2.8717 20.0965 5.7421 3 
0.00117758 20.0966 5.74121 3 
0.00118318 17.2257 5.74122 3 
4.30711 18.6612 4.30693 3 
7.17827 18.6612 4.307 3 
4.30721 18.6612 7.17794 3 
5.74284 17.2258 5.74257 3 
7.17869 18.6612 7.17841 3 
5.74284 20.0965 5.74256 3 
10.0497 18.6612 4.30694 3 
8.61391 17.2258 5.74246 3 
10.0495 18.6612 7.17804 3 
11.4854 17.2258 5.74244 3 
8.61391 20.0965 5.74246 3 
11.4854 20.0966 5.74246 3 
12.9215 18.6612 4.30727 3 
15.7929 18.6612 4.30743 3 
12.9217 18.6612 7.17835 3 
14.3576 17.2256 5.7431 3 
15.7951 18.6612 7.17955 3 
14.3576 20.0969 5.7431 3 
18.6634 18.6612 4.30651 3 
17.2289 17.2246 5.74262 3 
18.6645 18.6612 7.17759 3 
20.0998 17.2252 5.74092 3 
17.2289 20.0978 5.74261 3 
20.0998 20.0973 5.74093 3 
21.5348 18.6613 4.30527 3 
24.4066 18.6612 4.30464 3 
21.5369 18.6612 7.17459 3 
22.9719 17.2255 5.73947 3 
24.4087 18.6612 7.17427 3 
22.9719 20.097 5.73948 3 
27.2776 18.6612 4.30522 3 
25.843 17.2256 5.73985 3 
27.2783 18.6612 7.17622 3 
25.8431 20.0968 5.73985 3 
1.4362 21.5319 4.30612 3 
1.43631 24.403 4.30585 3 
1.43644 21.5321 7.17723 3 
2.87168 22.9674 5.74179 3 
1.43659 24.4033 7.17669 3 
0.00136981 22.9677 5.74091 3 
4.30702 21.5318 4.30679 3 
7.17808 21.5319 4.30684 3 
7.17762 24.403 4.3065 3 
4.30686 24.4028 4.3065 3 
4.30711 21.532 7.17773 3 
7.17839 21.532 7.1781 3 
4.30687 24.4031 7.17715 3 
5.74255 22.9674 5.7422 3 
7.17764 24.4035 7.17725 3 
10.0494 21.532 4.30671 3 
10.0485 24.4035 4.30613 3 
10.049 21.5323 7.17753 3 
8.61332 22.9676 5.74194 3 
10.0476 24.4047 7.17607 3 
11.4843 22.9682 5.74146 3 
15.7917 24.4047 4.30535 3 
12.921 21.5322 4.30684 3 
15.7924 21.5329 4.30671 3 
12.9199 24.4041 4.30575 3 
12.9204 21.5329 7.17712 3 
15.793 21.5347 7.17693 3 
14.3559 22.9691 5.74117 3 
15.7911 24.4081 7.17351 3 
12.9183 24.4065 7.17454 3 
18.6638 21.5333 4.30597 3 
18.6639 24.4052 4.3047 3 
18.6667 21.5362 7.17522 3 
17.2284 22.9703 5.74054 3 
18.6658 24.4096 7.17202 3 
20.1014 22.9706 5.73919 3 
21.5352 21.5328 4.30497 3 
24.4069 21.5325 4.30451 3 
21.5362 24.4052 4.30392 3 
21.5378 21.5335 7.17388 3 
21.5407 24.4098 7.17049 3 
22.9727 22.9692 5.73877 3 
24.4091 21.533 7.17392 3 
24.4102 24.4061 7.1728 3 
24.4075 24.4042 4.30397 3 
27.2778 21.5322 4.3051 3 
27.2781 24.4035 4.30478 3 
27.2785 21.5324 7.176 3 
25.8435 22.9684 5.73947 3 
27.279 24.4043 7.17531 3 
1.43644 27.2744 4.30549 3 
0.0019497 28.7109 5.73998 3 
2.87162 28.7102 5.74089 3 
1.4368 27.275 7.1761 3 
2.87165 25.8387 5.74133 3 
0.0016918 25.8392 5.7404 3 
5.74176 28.7104 5.7412 3 
4.30666 27.2742 4.30614 3 
7.1771 27.2746 4.30611 3 
4.30659 27.2748 7.17654 3 
5.7421 25.8388 5.74164 3 
7.17693 27.2753 7.17648 3 
8.61211 28.7111 5.74077 3 
11.4832 28.712 5.74008 3 
10.0479 27.2753 4.30557 3 
8.61248 25.8395 5.74111 3 
10.047 27.2769 7.17532 3 
11.4832 25.8406 5.74017 3 
12.9193 27.276 4.30501 3 
15.7913 27.2765 4.30448 3 
12.9182 27.2784 7.17415 3 
14.355 25.8416 5.73943 3 
15.7907 27.2794 7.17318 3 
18.6636 27.2768 4.30389 3 
17.2276 25.8425 5.73869 3 
18.6644 27.2803 7.17216 3 
20.101 25.8431 5.73772 3 
21.5361 27.277 4.30332 3 
24.4081 27.2765 4.30333 3 
21.5385 27.2808 7.17128 3 
22.974 25.8427 5.73724 3 
24.411 27.2797 7.1719 3 
27.2785 27.2752 4.30439 3 
25.8441 25.8406 5.73875 3 
27.2796 27.2765 7.17462 3 
2.87153 2.86974 8.61161 3 
0.00201015 2.87002 8.61128 3 
1.43666 1.43458 10.0473 3 
2.87116 2.8699 11.4832 3 
0.00177525 2.87009 11.4832 3 
5.74153 2.86987 8.61178 3 
4.30608 1.43465 10.0473 3 
7.17638 1.43523 10.0473 3 
5.7411 2.87017 11.4832 3 
5.74043 0.000121992 11.4828 3 
8.61233 2.87012 8.61193 3 
11.4836 2.87036 8.61183 3 
10.0477 1.43564 10.0475 3 
8.61205 2.8704 11.4834 3 
11.4837 2.87047 11.4837 3 
11.4831 0.00146231 11.4832 3 
11.4828 0.00113782 8.61092 3 
8.61108 0.00118607 11.4826 3 
14.3554 2.87048 8.6116 3 
14.3547 0.00186906 8.61024 3 
12.9193 1.43599 10.0473 3 
15.7915 1.43612 10.0469 3 
14.3556 2.87041 11.4836 3 
14.3552 0.00165016 11.4827 3 
17.2276 2.87061 8.6112 3 
20.1 2.87079 8.61073 3 
20.1019 0.00294315 11.4811 3 
18.6642 1.43648 10.0463 3 
17.2277 2.87044 11.4832 3 
20.1002 2.87067 11.4828 3 
20.1012 0.00321386 8.6086 3 
17.2276 0.00248239 8.60946 3 
17.2281 0.00188764 11.4819 3 
22.9725 2.87087 8.61048 3 
21.5371 1.43696 10.0459 3 
24.409 1.43671 10.0463 3 
22.9724 2.87084 11.4828 3 
22.9746 0.00335859 8.60838 3 
22.9746 0.00328427 11.4817 3 
25.8438 2.87057 8.61079 3 
25.845 0.00166596 11.4826 3 
27.2794 1.43554 10.0469 3 
25.8437 2.87059 11.483 3 
25.8452 0.00157712 8.60984 3 
2.87152 5.74038 8.61159 3 
0.0019755 5.74008 8.61127 3 
1.43663 4.30507 10.0473 3 
1.43661 7.17555 10.0473 3 
2.87115 5.74026 11.4832 3 
0.00176326 5.74005 11.4832 3 
5.74153 5.74026 8.61176 3 
4.30629 4.30507 10.0474 3 
4.30606 7.1755 10.0473 3 
7.17674 4.30507 10.0475 3 
7.1764 7.17496 10.0472 3 
5.7411 5.74003 11.4832 3 
8.61232 5.74004 8.6119 3 
11.4836 5.73978 8.61178 3 
10.048 4.3051 10.0478 3 
10.0477 7.17457 10.0474 3 
8.61205 5.73981 11.4834 3 
11.4837 5.73977 11.4836 3 
15.7915 4.30506 10.0475 3 
14.3554 5.73961 8.61158 3 
12.9196 4.3051 10.0478 3 
12.9193 7.17421 10.0472 3 
15.7915 7.17401 10.0468 3 
14.3556 5.7398 11.4836 3 
17.2276 5.73946 8.61117 3 
20.1001 5.73927 8.6107 3 
18.6638 4.30505 10.0471 3 
18.6642 7.17365 10.0462 3 
17.2278 5.73973 11.4832 3 
20.1002 5.7395 11.4828 3 
22.9724 5.73917 8.61046 3 
21.5362 4.30504 10.0468 3 
21.5371 7.17317 10.0458 3 
22.9724 5.73928 11.4828 3 
24.409 7.17341 10.0462 3 
24.4081 4.30504 10.0468 3 
25.8438 5.73951 8.61076 3 
27.2789 4.30504 10.0471 3 
27.2793 7.17461 10.0469 3 
25.8437 5.73953 11.483 3 
2.87142 8.6114 8.61169 3 
2.87146 11.483 8.61212 3 
0.00195162 11.4822 8.61131 3 
0.00214632 8.61066 8.61114 3 
1.43654 10.0467 10.0474 3 
2.87098 8.61104 11.4832 3 
2.87108 11.4825 11.4835 3 
0.00165766 11.4819 11.4832 3 
0.00187652 8.61052 11.4831 3 
5.74122 8.61093 8.61154 3 
5.74147 11.4826 8.61194 3 
4.30597 10.0467 10.0473 3 
7.17564 10.0452 10.0465 3 
5.74044 8.61008 11.4827 3 
5.74045 11.4815 11.4827 3 
8.612 8.6102 8.61158 3 
11.4828 8.60903 8.61083 3 
8.61215 11.4815 8.61172 3 
11.4811 11.4784 8.60906 3 
10.0471 10.0442 10.0468 3 
8.61111 8.60907 11.4825 3 
11.4832 8.60877 11.483 3 
8.60931 11.4784 11.4806 3 
11.4827 11.4777 11.4824 3 
14.3548 8.60827 8.61015 3 
14.353 11.476 8.60693 3 
12.9178 10.0424 10.0454 3 
15.7909 10.0414 10.0442 3 
14.3552 8.60856 11.4825 3 
14.3529 11.4748 11.4793 3 
17.2276 8.60762 8.60938 3 
20.1013 8.60691 8.60852 3 
17.2277 11.4742 8.60518 3 
20.1045 11.4724 8.60319 3 
18.6656 10.0401 10.0427 3 
17.2282 8.60829 11.4818 3 
20.1019 8.60728 11.481 3 
17.2292 11.4732 11.4771 3 
20.1084 11.4697 11.4745 3 
22.9746 8.60677 8.60833 3 
22.9797 11.4731 8.60321 3 
21.5411 10.0388 10.0418 3 
22.9746 8.60692 11.4816 3 
22.9799 11.4724 11.4784 3 
24.4118 10.0413 10.0443 3 
25.8451 8.60858 8.6098 3 
25.8457 11.4795 8.60877 3 
27.2797 10.0451 10.0465 3 
25.8449 8.60853 11.4825 3 
25.8454 11.4791 11.4817 3 
2.87159 14.3546 8.61285 3 
0.00145444 14.3541 8.61209 3 
1.43643 12.9184 10.0479 3 
1.43628 15.79 10.0486 3 
2.87141 14.3543 11.4842 3 
0.00106972 14.3537 11.4836 3 
5.74219 14.3546 8.61288 3 
4.3064 12.9186 10.048 3 
7.17631 12.9175 10.0471 3 
4.30692 15.7902 10.0489 3 
7.17767 15.79 10.0486 3 
5.7416 14.354 11.4838 3 
8.61349 14.3541 8.61316 3 
11.4823 14.352 8.6106 3 
10.0477 12.916 10.0474 3 
10.0503 15.7896 10.05 3 
8.61076 14.3519 11.4818 3 
11.4848 14.3508 11.4846 3 
14.3537 14.349 8.60826 3 
12.9133 12.909 10.0408 3 
15.7879 12.9048 10.0366 3 
12.9159 15.7854 10.0439 3 
15.7921 15.7803 10.0407 3 
14.3412 14.3335 11.4667 3 
17.2299 14.3459 8.60638 3 
20.109 14.3443 8.60279 3 
18.6697 12.9005 10.0325 3 
18.6788 15.7733 10.0352 3 
17.229 14.3222 11.4575 3 
20.1396 14.3104 11.4435 3 
22.9766 14.3514 8.60638 3 
21.5533 12.8985 10.0297 3 
21.5429 15.7893 10.0402 3 
22.9804 14.3441 11.474 3 
24.4126 12.9124 10.0421 3 
24.4093 15.7888 10.0451 3 
25.8443 14.3532 8.61014 3 
27.2791 12.917 10.0465 3 
27.2781 15.7894 10.0476 3 
25.844 14.3515 11.4815 3 
2.8717 17.2257 8.61336 3 
2.87167 20.0966 8.61338 3 
0.00120611 20.0967 8.61269 3 
1.43623 18.6611 10.049 3 
2.87161 17.2256 11.4849 3 
2.87159 20.0966 11.4849 3 
0.000626747 20.0969 11.4843 3 
0.00119202 17.2256 8.61266 3 
0.000635334 17.2254 11.4843 3 
5.74266 17.2258 8.61353 3 
5.74264 20.0966 8.61355 3 
4.30709 18.6612 10.0493 3 
7.17818 18.6612 10.0492 3 
5.74254 17.2257 11.485 3 
5.74253 20.0966 11.485 3 
8.6146 17.2258 8.61434 3 
11.4846 17.2255 8.61308 3 
8.61458 20.0966 8.61438 3 
11.4846 20.0969 8.61312 3 
10.0515 18.6612 10.0513 3 
8.61317 17.2255 11.4843 3 
11.4896 17.2259 11.4895 3 
8.61316 20.0969 11.4843 3 
11.4896 20.0965 11.4895 3 
14.3579 17.2248 8.61332 3 
14.3578 20.0976 8.61334 3 
12.9198 18.6612 10.0477 3 
15.8011 18.6612 10.0476 3 
14.3463 17.216 11.473 3 
14.3463 20.1064 11.473 3 
17.2326 17.2208 8.61286 3 
20.102 17.2255 8.6102 3 
17.2325 20.1016 8.6129 3 
20.102 20.0969 8.61021 3 
18.6635 18.6612 10.051 3 
17.25 17.1945 11.4741 3 
20.1044 17.2358 11.4788 3 
17.25 20.1278 11.4741 3 
20.1044 20.0866 11.4788 3 
22.9751 17.2252 8.60799 3 
22.9751 20.0972 8.60802 3 
21.5417 18.6612 10.0415 3 
22.9731 17.2254 11.4811 3 
22.9731 20.0969 11.4811 3 
24.4086 18.6611 10.0461 3 
25.8436 17.2254 8.61103 3 
25.8436 20.0969 8.61103 3 
27.2778 18.6611 10.0481 3 
25.8423 17.225 11.4831 3 
25.8423 20.0972 11.4831 3 
2.8716 22.9676 8.61291 3 
0.0010563 22.9686 11.4837 3 
1.43643 24.4038 10.048 3 
1.43627 21.5323 10.0487 3 
2.8714 22.9679 11.4843 3 
0.00148305 22.9681 8.61214 3 
5.7422 22.9677 8.61293 3 
4.30642 24.4036 10.0481 3 
7.17627 24.4048 10.0473 3 
4.30692 21.5321 10.049 3 
7.17765 21.5323 10.0487 3 
5.74158 22.9683 11.484 3 
8.61346 22.9682 8.61323 3 
11.4822 22.9704 8.61067 3 
10.0476 24.4063 10.0475 3 
10.0502 21.5327 10.0501 3 
8.61072 22.9704 11.482 3 
11.4848 22.9715 11.4848 3 
14.3536 22.9733 8.60832 3 
12.9158 21.537 10.044 3 
15.792 21.5421 10.0408 3 
12.9132 24.4133 10.041 3 
15.7878 24.4175 10.0368 3 
14.3411 22.9888 11.4669 3 
17.2298 22.9764 8.60645 3 
20.1089 22.9781 8.60285 3 
18.6787 21.5491 10.0353 3 
18.6697 24.4218 10.0327 3 
17.2289 23.0001 11.4577 3 
20.1396 23.0118 11.4436 3 
22.9767 22.971 8.60644 3 
22.9805 22.9781 11.4741 3 
21.5429 21.533 10.0403 3 
24.4127 24.4099 10.0422 3 
24.4094 21.5335 10.0452 3 
21.5534 24.4237 10.0298 3 
25.8444 22.9692 8.61018 3 
25.8441 22.9707 11.4815 3 
27.2792 24.4053 10.0466 3 
27.2782 21.5328 10.0476 3 
2.87145 28.7107 8.61172 3 
2.87152 25.8392 8.61219 3 
0.0022032 28.7115 8.61119 3 
0.00201034 25.84 8.6114 3 
2.87104 28.7112 11.4833 3 
2.87112 25.8396 11.4836 3 
1.43662 27.2754 10.0475 3 
0.00167693 25.8403 11.4833 3 
0.00193299 28.7117 11.4832 3 
5.74123 28.7112 8.6116 3 
5.74149 25.8396 8.61201 3 
4.30598 27.2755 10.0474 3 
7.17563 27.277 10.0466 3 
5.74042 25.8408 11.4828 3 
8.612 28.712 8.61164 3 
8.61211 25.8407 8.61182 3 
11.481 25.8439 8.60915 3 
10.0471 27.278 10.0469 3 
8.60925 25.8439 11.4808 3 
11.4826 25.8445 11.4826 3 
14.3529 25.8463 8.60704 3 
12.9178 27.2798 10.0455 3 
15.7908 27.2808 10.0443 3 
14.3528 25.8475 11.4795 3 
17.2276 25.8481 8.60532 3 
20.1044 25.8498 8.60332 3 
20.1084 25.8525 11.4747 3 
18.6656 27.2821 10.0429 3 
17.2291 25.849 11.4773 3 
22.9797 25.8491 8.6033 3 
22.9799 25.8499 11.4785 3 
24.4118 27.2809 10.0443 3 
21.5411 27.2834 10.042 3 
25.8458 25.8428 8.60884 3 
25.8455 25.8432 11.4818 3 
27.2798 27.2771 10.0465 3 
0.00132976 2.87013 14.3554 3 
1.43625 1.43472 12.9193 3 
2.87066 2.87007 14.3552 3 
1.43574 1.43479 15.7914 3 
4.30553 1.43505 12.919 3 
7.1758 1.43576 12.9189 3 
5.74059 2.87038 14.3551 3 
4.30496 1.43533 15.7912 3 
7.17519 1.43614 15.7912 3 
5.73967 0.000759686 14.3548 3 
8.61165 2.87056 14.3554 3 
10.0473 1.436 12.9193 3 
10.0468 1.43614 15.7915 3 
8.61023 0.00189652 14.3547 3 
11.4835 2.87045 14.3557 3 
11.4825 0.00165086 14.3552 3 
12.9195 1.43578 12.9196 3 
15.7917 1.43555 12.9192 3 
12.9191 1.43554 15.7917 3 
15.7915 1.43523 15.7914 3 
14.3555 2.87027 14.3557 3 
14.3555 0.000888027 14.3555 3 
18.6642 1.43584 12.9187 3 
18.6638 1.4356 15.7911 3 
17.2282 0.000692238 14.3547 3 
20.0998 2.8705 14.3551 3 
17.2276 2.87019 14.3552 3 
20.1012 0.00195327 14.3547 3 
22.9738 0.00261083 14.3552 3 
21.5368 1.43655 12.9187 3 
24.4087 1.4365 12.9191 3 
22.972 2.87072 14.3552 3 
21.5362 1.43624 15.7913 3 
24.4081 1.43624 15.7916 3 
25.8433 2.87054 14.3554 3 
25.8444 0.00133966 14.3555 3 
27.279 1.43553 12.9193 3 
27.2784 1.43538 15.7916 3 
2.87067 5.74019 14.3552 3 
1.43624 4.30511 12.9192 3 
1.4362 7.17548 12.9192 3 
1.43574 4.30513 15.7913 3 
1.43572 7.17548 15.7913 3 
0.00130638 5.7401 14.3553 3 
4.30497 7.17495 15.7911 3 
5.7406 5.73987 14.3551 3 
4.30584 4.30511 12.9191 3 
7.17637 4.30513 12.9193 3 
4.30554 7.17517 12.919 3 
7.17583 7.17448 12.9189 3 
7.17592 4.30514 15.7913 3 
4.30534 4.30514 15.7912 3 
7.17521 7.17417 15.7911 3 
10.0478 4.30514 12.9196 3 
10.0473 7.17427 12.9192 3 
11.4835 5.73988 14.3556 3 
10.0475 4.30516 15.7916 3 
10.0468 7.17421 15.7914 3 
8.61166 5.7397 14.3553 3 
12.9196 4.30516 12.9198 3 
15.7916 4.30514 12.9195 3 
12.9195 7.17448 12.9195 3 
15.7917 7.17468 12.9191 3 
14.3556 5.74006 14.3556 3 
12.9194 4.30518 15.7917 3 
15.7914 4.30518 15.7914 3 
12.9192 7.17482 15.7917 3 
15.7915 7.1751 15.7913 3 
18.6638 4.30511 12.9191 3 
18.6643 7.17437 12.9186 3 
18.6635 4.30514 15.7911 3 
18.6638 7.17469 15.791 3 
20.0999 5.73975 14.355 3 
17.2277 5.74008 14.3552 3 
24.4078 4.30508 12.9192 3 
21.536 4.3051 12.919 3 
21.5368 7.17367 12.9186 3 
24.4087 7.17366 12.919 3 
21.5356 4.30514 15.7912 3 
21.5363 7.17402 15.7913 3 
24.4081 7.174 15.7916 3 
24.4074 4.30512 15.7914 3 
22.972 5.73949 14.3552 3 
27.2786 4.30509 12.9192 3 
27.2789 7.17465 12.9192 3 
27.2781 4.30513 15.7915 3 
27.2784 7.17486 15.7915 3 
25.8433 5.73965 14.3554 3 
1.43614 10.0466 12.9193 3 
2.87064 11.4822 14.3553 3 
0.00112899 11.482 14.3553 3 
2.87049 8.6108 14.3551 3 
1.43566 10.0466 15.7913 3 
0.00141243 8.6106 14.3553 3 
4.30535 10.0461 12.9189 3 
7.17433 10.0438 12.9178 3 
5.73961 11.4806 14.3546 3 
5.7397 8.60951 14.3547 3 
4.30474 10.0457 15.791 3 
7.17324 10.0429 15.7906 3 
10.0455 10.0425 12.9176 3 
8.60702 11.476 14.3526 3 
11.4826 8.60867 14.3551 3 
8.61027 8.6084 14.3546 3 
10.0442 10.0416 15.7907 3 
11.4794 11.4748 14.3527 3 
14.3556 11.4773 14.3554 3 
12.919 10.0429 12.9189 3 
15.7918 10.0431 12.9176 3 
12.9178 10.0432 15.7916 3 
15.7916 10.0444 15.7913 3 
14.3555 8.6094 14.3554 3 
18.6666 10.0419 12.9164 3 
17.2283 8.60957 14.3546 3 
20.1013 8.60828 14.3546 3 
18.6654 10.043 15.791 3 
20.106 11.4731 14.3537 3 
17.2304 11.4765 14.3525 3 
21.5403 10.0401 12.9172 3 
24.4111 10.0418 12.9184 3 
22.978 11.4741 14.3552 3 
21.5389 10.0414 15.7919 3 
24.41 10.0427 15.7921 3 
22.9738 8.60762 14.3552 3 
27.2792 10.0452 12.9191 3 
27.2786 10.0455 15.7916 3 
25.8445 11.4796 14.3552 3 
25.8444 8.60887 14.3554 3 
1.43604 12.9182 12.9195 3 
1.43596 15.7897 12.9201 3 
2.87112 14.3539 14.3557 3 
0.000471411 14.3536 14.3553 3 
1.43561 12.9181 15.7913 3 
1.43555 15.7896 15.7913 3 
4.30597 12.9179 12.9194 3 
7.17466 12.9157 12.9178 3 
4.30696 15.7899 12.9205 3 
7.17712 15.7893 12.92 3 
4.30551 12.9174 15.7913 3 
7.17349 12.9142 15.7908 3 
4.30675 15.7893 15.7919 3 
7.17683 15.7876 15.7926 3 
5.74123 14.353 14.3555 3 
10.041 12.909 12.913 3 
10.044 15.7853 12.9156 3 
8.60827 14.349 14.3533 3 
11.4668 14.3335 14.341 3 
10.0367 12.9049 15.7876 3 
10.0406 15.7803 15.7917 3 
12.9197 12.9109 12.9195 3 
15.7892 12.9067 12.9112 3 
12.9278 15.7879 12.9276 3 
15.7594 15.7444 12.8696 3 
12.9114 12.9068 15.789 3 
15.7916 12.9134 15.7913 3 
12.8698 15.7444 15.7592 3 
15.7917 15.827 15.7914 5 
14.3613 14.345 14.361 3 
18.6766 12.9012 12.9064 3 
18.7612 15.686 12.8219 3 
18.6718 12.9067 15.7936 3 
18.7135 15.7444 15.8235 3 
20.1256 14.3221 14.354 3 
17.2376 14.3185 14.3454 3 
22.9769 14.3457 14.3531 3 
21.5506 12.9004 12.9132 3 
21.548 15.7732 12.9042 3 
24.4112 12.9126 12.917 3 
24.4081 15.7861 12.9163 3 
21.5465 12.9046 15.795 3 
24.4097 12.9139 15.7918 3 
21.5426 15.7801 15.7909 3 
24.4063 15.7875 15.7899 3 
27.2784 12.9168 12.9189 3 
27.2772 15.7889 12.9191 3 
25.8427 14.3518 14.3545 3 
27.2777 12.9173 15.7913 3 
27.2764 15.7892 15.7906 3 
1.4359 18.6611 12.9204 3 
1.43548 18.6611 15.7913 3 
2.87151 20.0968 14.3563 3 
2.87153 17.2254 14.3563 3 
4.30735 18.6611 12.921 3 
7.17836 18.6611 12.9213 3 
5.74307 17.2254 14.3571 3 
4.3074 18.6611 15.7924 3 
7.17943 18.6611 15.7947 3 
5.74308 20.0968 14.3572 3 
8.61325 20.0975 14.3576 3 
10.0477 18.6611 12.9196 3 
8.61325 17.2247 14.3575 3 
11.473 20.1063 14.3462 3 
10.0475 18.6611 15.8008 3 
11.473 17.2159 14.3461 3 
12.9374 18.6611 12.9374 3 
15.7962 18.6611 12.8172 5 
14.3928 17.2387 14.3926 5 
14.3928 20.0835 14.3927 5 
12.8172 18.6611 15.796 5 
16.5409 18.6611 15.0425 5 
20.1092 20.1279 14.333 3 
18.612 18.6611 12.9711 5 
17.3777 20.4988 14.2053 5 
17.3778 16.8234 14.2052 5 
18.7662 18.6611 15.7867 5 
20.1092 17.1944 14.333 3 
21.5324 18.6611 12.9195 3 
24.4058 18.6611 12.9185 3 
22.9705 20.1015 14.3504 3 
21.5357 18.6611 15.7818 3 
24.4037 18.6611 15.7879 3 
22.9705 17.2207 14.3504 3 
28.7119 20.097 14.3554 3 
28.7119 17.2252 14.3554 3 
27.2766 18.6611 12.9196 3 
25.8406 17.2244 14.3541 3 
25.8406 20.0978 14.3541 3 
27.2756 18.6611 15.7901 3 
1.43592 21.5325 12.9202 3 
1.43604 24.4041 12.9197 3 
2.8711 22.9683 14.3558 3 
1.43552 21.5326 15.7914 3 
1.43561 24.4041 15.7914 3 
0.000450771 22.9686 14.3554 3 
4.30695 21.5323 12.9206 3 
7.17711 21.5329 12.9201 3 
4.30597 24.4043 12.9196 3 
7.1746 24.4066 12.9181 3 
5.74121 22.9692 14.3557 3 
4.30671 21.5329 15.792 3 
7.1768 21.5346 15.7927 3 
4.30549 24.4048 15.7915 3 
7.17346 24.4081 15.791 3 
10.044 21.537 12.9157 3 
10.0409 24.4133 12.9132 3 
8.60823 22.9733 14.3535 3 
10.0406 21.542 15.7918 3 
10.0366 24.4174 15.7878 3 
11.4668 22.9888 14.3411 3 
12.9277 21.5344 12.9278 3 