ITEM: TIMESTEP
20041
ITEM: NUMBER OF ATOMS
18
ITEM: BOX BOUNDS pp pp pp
0.0000000000000000e+00 2.8712000000000000e+01
0.0000000000000000e+00 2.8712000000000000e+01
0.0000000000000000e+00 2.8712000000000000e+01
ITEM: ATOMS x y z c_cna 
15.7917 15.827 15.7914 5 
15.7962 18.6611 12.8172 5 
14.3928 17.2387 14.3926 5 
14.3928 20.0835 14.3927 5 
12.8172 18.6611 15.796 5 
16.5409 18.6611 15.0425 5 
18.612 18.6611 12.9711 5 
17.3777 20.4988 14.2053 5 
17.3778 16.8234 14.2052 5 
18.7662 18.6611 15.7867 5 
15.7916 21.4953 15.7914 5 
15.0425 18.6611 16.5403 5 
12.9713 18.6611 18.6116 5 
14.2056 16.8235 17.3774 5 
15.7871 18.6611 18.7656 5 
14.2056 20.4987 17.3775 5 
17.1905 17.2387 17.1901 5 
17.1905 20.0835 17.1901 5 
ITEM: TIMESTEP
20042
ITEM: NUMBER OF ATOMS
18
ITEM: BOX BOUNDS pp pp pp
0.0000000000000000e+00 2.8712000000000000e+01
0.0000000000000000e+00 2.8712000000000000e+01
0.0000000000000000e+00 2.8712000000000000e+01
ITEM: ATOMS x y z c_cna 
15.7917 15.827 15.7914 5 
15.7962 18.6611 12.8172 5 
14.3928 17.2387 14.3926 5 
14.3928 20.0835 14.3927 5 
12.8172 18.6611 15.796 5 
16.5409 18.6611 15.0425 5 
18.612 18.6611 12.9711 5 
17.3777 20.4988 14.2053 5 
17.3778 16.8234 14.2052 5 
18.7662 18.6611 15.7867 5 
15.7916 21.4953 15.7914 5 
15.0425 18.6611 16.5403 5 
12.9713 18.6611 18.6116 5 
14.2056 16.8235 17.3774 5 
15.7871 18.6611 18.7656 5 
14.2056 20.4987 17.3775 5 
17.1905 17.2387 17.1901 5 
17.1905 20.0835 17.1901 5 
