ITEM: TIMESTEP
21041
ITEM: NUMBER OF ATOMS
18
ITEM: BOX BOUNDS pp pp pp
0.0000000000000000e+00 2.8712000000000000e+01
0.0000000000000000e+00 2.8712000000000000e+01
0.0000000000000000e+00 2.8712000000000000e+01
ITEM: ATOMS x y z c_cna 
15.7916 15.827 15.7914 5 
15.7962 18.6611 12.8172 5 
14.3928 20.0835 14.3927 5 
14.3927 17.2387 14.3927 5 
12.8171 18.661 15.796 5 
18.612 18.6612 12.9712 5 
17.3777 16.8235 14.2053 5 
16.5408 18.6613 15.0425 5 
18.7662 18.6613 15.7868 5 
17.3777 20.4988 14.2054 5 
15.7916 21.4953 15.7914 5 
15.0425 18.6609 16.5402 5 
12.9712 18.661 18.6117 5 
14.2055 16.8235 17.3775 5 
15.787 18.6611 18.7656 5 
14.2055 20.4988 17.3776 5 
17.1904 17.2388 17.1901 5 
17.1904 20.0836 17.1901 5 
ITEM: TIMESTEP
21042
ITEM: NUMBER OF ATOMS
18
ITEM: BOX BOUNDS pp pp pp
0.0000000000000000e+00 2.8712000000000000e+01
0.0000000000000000e+00 2.8712000000000000e+01
0.0000000000000000e+00 2.8712000000000000e+01
ITEM: ATOMS x y z c_cna 
15.7916 15.827 15.7914 5 
15.7962 18.6611 12.8172 5 
14.3928 20.0835 14.3927 5 
14.3927 17.2387 14.3927 5 
12.8171 18.661 15.796 5 
18.612 18.6612 12.9712 5 
17.3777 16.8235 14.2053 5 
16.5408 18.6613 15.0425 5 
18.7662 18.6613 15.7868 5 
17.3777 20.4988 14.2054 5 
15.7916 21.4953 15.7914 5 
15.0425 18.6609 16.5402 5 
12.9712 18.661 18.6117 5 
14.2055 16.8235 17.3775 5 
15.787 18.6611 18.7656 5 
14.2055 20.4988 17.3776 5 
17.1904 17.2388 17.1901 5 
17.1904 20.0836 17.1901 5 
