ITEM: TIMESTEP
21041
ITEM: NUMBER OF ATOMS
2001
ITEM: BOX BOUNDS pp pp pp
0.0000000000000000e+00 2.8712000000000000e+01
0.0000000000000000e+00 2.8712000000000000e+01
0.0000000000000000e+00 2.8712000000000000e+01
ITEM: ATOMS x y z c_cna 
1.43556 1.4337 1.43549 3 
2.871 2.86946 2.87079 3 
0.00105467 2.8695 2.86991 3 
2.87006 2.86963 0.000999141 3 
0.000180566 2.86943 0.000142862 3 
4.30563 1.43401 1.43624 3 
7.17633 1.43441 1.43648 3 
5.74124 2.86966 2.8712 3 
5.74044 2.86997 0.00158267 3 
10.0477 1.43471 1.43623 3 
8.61214 2.86992 2.87111 3 
11.4836 2.87007 2.87071 3 
8.61169 2.87022 0.00164257 3 
11.4835 2.87027 0.00128271 3 
12.9195 1.43479 1.43573 3 
15.7915 1.43478 1.4352 3 
14.3555 2.87011 2.8702 3 
14.3556 2.87019 0.000754206 3 
18.6635 1.43469 1.43475 3 
17.2274 2.87011 2.8697 3 
20.0994 2.87005 2.86929 3 
17.2276 2.87009 0.000235862 3 
21.5353 1.43452 1.43443 3 
24.4067 1.43421 1.43433 3 
22.9713 2.86991 2.8691 3 
27.2775 1.43388 1.43467 3 
25.8426 2.86973 2.86926 3 
1.43559 4.30508 1.43546 3 
1.43559 7.17647 1.43547 3 
2.871 5.7408 2.87078 3 
2.87009 5.7407 0.00101401 3 
0.00106545 5.74056 2.86989 3 
0.000209479 5.74075 0.000116021 3 
4.30562 4.30519 1.43623 3 
7.17634 4.30525 1.43644 3 
4.30566 7.17639 1.43623 3 
7.17639 7.17609 1.43646 3 
5.74125 5.74075 2.87119 3 
5.74046 5.74053 0.00161088 3 
10.0478 4.3053 1.43622 3 
10.0478 7.17586 1.43621 3 
8.61219 5.74063 2.87111 3 
11.4837 5.74044 2.87072 3 
8.61175 5.74038 0.00166472 3 
11.4836 5.74032 0.00130327 3 
12.9196 4.30525 1.43575 3 
15.7916 4.30519 1.43522 3 
12.9197 7.1757 1.43576 3 
15.7917 7.17563 1.43524 3 
14.3556 5.74029 2.87025 3 
14.3557 5.74028 0.000777919 3 
18.6635 4.30513 1.43476 3 
18.6636 7.17556 1.43478 3 
17.2275 5.74018 2.86973 3 
20.0995 5.74007 2.86932 3 
17.2277 5.74026 0.000261593 3 
21.5354 4.30504 1.43443 3 
21.5354 7.17559 1.4344 3 
22.9714 5.74005 2.86907 3 
24.4068 7.17581 1.43427 3 
24.4068 4.30499 1.43433 3 
27.2775 4.30502 1.43467 3 
27.2775 7.17621 1.43463 3 
25.8426 5.74024 2.86922 3 
1.43556 10.048 1.43543 3 
2.87106 8.61228 2.87084 3 
2.87117 11.4837 2.87097 3 
0.00100567 8.61194 2.86992 3 
2.87015 8.61208 0.00094961 3 
0.000837914 11.4835 2.87012 3 
0.000121383 8.61221 3.1396e-05 3 
2.87031 11.4836 0.000785175 3 
4.30588 10.0479 1.4362 3 
7.17663 10.0474 1.43647 3 
5.7414 8.61207 2.87122 3 
5.74181 11.4836 2.87133 3 
5.74082 11.4831 0.00152274 3 
5.74041 8.61149 0.00174117 3 
10.048 10.0471 1.43621 3 
8.6123 8.61165 2.87105 3 
11.4838 8.61125 2.87061 3 
8.61277 11.4832 2.87118 3 
11.4841 11.4828 2.87079 3 
8.61189 11.4825 0.00170894 3 
8.6117 8.61103 0.00184165 3 
11.4838 11.4822 0.00127401 3 
11.4837 8.61087 0.00147095 3 
14.3558 8.61087 0.000923096 3 
12.9198 10.0469 1.43576 3 
15.7918 10.0467 1.43528 3 
14.3556 8.61095 2.87014 3 
14.3558 11.4824 2.87037 3 
14.3559 11.4822 0.000690082 3 
17.2278 8.61092 0.000399475 3 
18.6637 10.0467 1.43481 3 
17.2276 8.61072 2.86963 3 
20.0997 8.61059 2.86913 3 
17.2277 11.4821 2.8699 3 
20.0997 11.482 2.86938 3 
17.2278 11.4823 0.000205669 3 
21.5354 10.0468 1.43439 3 
24.4067 10.0472 1.43424 3 
22.9716 8.61071 2.86884 3 
22.9715 11.4822 2.869 3 
27.2773 10.0477 1.43464 3 
25.8427 8.61121 2.86906 3 
25.8424 11.4829 2.86929 3 
1.43556 12.9193 1.43547 3 
1.43557 15.7903 1.43549 3 
2.87129 14.3549 2.87113 3 
0.00067256 14.3548 2.87027 3 
2.87045 14.3548 0.000665688 3 
4.3062 12.9193 1.43618 3 
7.17719 12.919 1.43638 3 
4.30641 15.7903 1.43619 3 
7.17766 15.7902 1.43633 3 
5.7422 14.3549 2.87149 3 
5.74125 14.3546 0.00131335 3 
10.0486 12.9187 1.43616 3 
10.0493 15.7901 1.43607 3 
8.61344 14.3547 2.87139 3 
11.4849 14.3544 2.87119 3 
11.4842 14.3539 0.000760319 3 
8.61262 14.3543 0.00128009 3 
12.9202 12.9184 1.43572 3 
15.7918 12.9183 1.43531 3 
12.9207 15.7899 1.4357 3 
15.7918 15.7897 1.4353 3 
14.3563 14.354 2.87095 3 
14.3559 14.3538 0.000109396 3 
18.6634 12.9183 1.43488 3 
18.6629 15.7898 1.43496 3 
17.2277 14.3537 2.87054 3 
20.0993 14.3537 2.86994 3 
21.5349 12.9185 1.43451 3 
24.4062 12.9189 1.43438 3 
21.5342 15.79 1.43465 3 
22.9707 14.3542 2.86951 3 
24.4057 15.7902 1.43449 3 
27.277 12.9192 1.43472 3 
27.2768 15.7903 1.43477 3 
25.8419 14.3545 2.86956 3 
1.43559 18.6611 1.43548 3 
2.87138 17.2258 2.8712 3 
2.8714 20.0965 2.87121 3 
0.000646131 20.0966 2.87035 3 
0.000619975 17.2258 2.87038 3 
2.87054 17.2257 0.000601948 3 
2.87053 20.0965 0.00059752 3 
4.30648 18.6611 1.43619 3 
7.17781 18.6611 1.4363 3 
5.74245 17.2258 2.87159 3 
5.74243 20.0965 2.87158 3 
5.74149 17.2256 0.00120449 3 
5.74146 20.0965 0.00116711 3 
10.0495 18.6611 1.43601 3 
8.61386 17.2257 2.87152 3 
11.4855 17.2256 2.87143 3 
8.6138 20.0965 2.87149 3 
11.4853 20.0966 2.8714 3 
8.61304 20.0966 0.00100935 3 
11.4848 17.2255 0.000344792 3 
8.61311 17.2256 0.00104752 3 
11.4847 20.0968 0.000294846 3 
12.9209 18.6611 1.43565 3 
15.7917 18.6611 1.43528 3 
14.3568 17.2255 2.87139 3 
14.3566 20.0967 2.87135 3 
18.6625 18.6611 1.43496 3 
17.2276 17.2253 2.871 3 
20.0986 17.2254 2.87036 3 
17.2274 20.0969 2.87098 3 
20.0985 20.0967 2.87034 3 
21.5338 18.6611 1.43469 3 
24.4054 18.6612 1.43451 3 
22.9701 17.2256 2.86976 3 
22.9701 20.0967 2.86975 3 
27.2767 18.6611 1.43478 3 
25.8416 17.2257 2.86969 3 
25.8416 20.0966 2.86969 3 
1.4356 21.5319 1.43548 3 
1.43558 24.4029 1.43547 3 
2.87135 22.9674 2.87113 3 
2.87046 22.9675 0.000651151 3 
0.000702829 22.9675 2.87026 3 
4.30615 24.403 1.43617 3 
4.30638 21.5319 1.43617 3 
7.17758 21.532 1.43631 3 
5.74215 22.9674 2.8715 3 
7.17705 24.4033 1.43638 3 
5.74115 22.9677 0.00128357 3 
10.0491 21.5322 1.43602 3 
8.6133 22.9676 2.87138 3 
11.4846 22.9678 2.87112 3 
10.0483 24.4037 1.43611 3 
8.61245 22.968 0.00123 3 
11.484 22.9684 0.000666547 3 
12.9204 21.5324 1.43562 3 
15.7916 21.5324 1.43525 3 
14.356 22.9682 2.87084 3 
12.9199 24.4039 1.43564 3 
15.7915 24.404 1.43521 3 
14.3556 22.9684 2.5237e-05 3 
18.6626 21.5323 1.43492 3 
18.6631 24.4038 1.43486 3 
17.2274 22.9684 2.87045 3 
20.099 22.9684 2.86989 3 
21.534 21.5321 1.43467 3 
24.4055 21.532 1.43449 3 
21.5347 24.4036 1.43454 3 
22.9705 22.968 2.86951 3 
24.406 24.4033 1.43443 3 
27.2768 21.532 1.43475 3 
25.8419 22.9677 2.86958 3 
27.277 24.403 1.43473 3 
2.87107 28.71 2.87086 3 
1.43556 27.2742 1.43546 3 
2.87121 25.8386 2.871 3 
9.31701e-05 28.71 4.6354e-05 3 
2.87028 25.8387 0.000774989 3 
0.000989844 28.7102 2.86997 3 
0.000829236 25.8387 2.87015 3 
2.8701 28.7103 0.000925171 3 
5.74136 28.7103 2.87127 3 
4.30584 27.2745 1.43621 3 
7.17651 27.275 1.43648 3 
5.74176 25.8387 2.87138 3 
5.74034 28.711 0.00171688 3 
5.74071 25.8393 0.00150525 3 
8.61219 28.7108 2.87109 3 
8.61154 28.7115 0.00185449 3 
11.4836 28.7112 2.87061 3 
10.0478 27.2754 1.43621 3 
8.6126 25.8392 2.87122 3 
11.4839 25.8396 2.87074 3 
11.4834 28.7117 0.00145287 3 
8.61169 25.84 0.00170327 3 
11.4835 25.8402 0.00122577 3 
14.3554 28.7114 2.87005 3 
12.9196 27.2756 1.43569 3 
15.7915 27.2756 1.43518 3 
14.3555 25.8399 2.87025 3 
14.3556 28.7116 0.000897623 3 
14.3556 25.8401 0.000640379 3 
20.0994 28.7115 2.86912 3 
17.2274 28.7115 2.86955 3 
18.6634 27.2755 1.43476 3 
17.2273 25.8401 2.86979 3 
20.0994 25.8401 2.86935 3 
17.2276 28.7114 0.000385347 3 
17.2275 25.8399 0.000164074 3 
22.9714 28.7113 2.8689 3 
21.5351 27.2753 1.43446 3 
22.9712 25.8398 2.86904 3 
24.4065 27.2749 1.43434 3 
25.8427 28.7108 2.86913 3 
27.2772 27.2744 1.43469 3 
25.8423 25.8392 2.86935 3 
1.43642 1.43391 4.30541 3 
1.43675 1.43429 7.17599 3 
2.87152 2.86957 5.74088 3 
0.00173723 2.86977 5.74017 3 
4.30638 1.43388 4.30607 3 
7.17678 1.43431 4.30611 3 
4.30649 1.43425 7.17636 3 
7.17694 1.43469 7.17649 3 
5.74168 2.86971 5.74125 3 
10.0478 1.43479 4.3057 3 
10.0477 1.43535 7.17611 3 
8.61235 2.87005 5.74112 3 
11.4836 2.87029 5.74078 3 
11.4832 0.000176654 5.74013 3 
12.9193 1.43511 4.30516 3 
15.7913 1.4353 4.30461 3 
12.9192 1.43582 7.17563 3 
15.7912 1.43614 7.17507 3 
14.3553 2.87042 5.74033 3 
14.3549 0.000778236 5.73942 3 
18.6634 1.43541 4.30411 3 
18.6637 1.43639 7.17447 3 
17.2274 2.87048 5.73984 3 
20.0997 2.87051 5.73937 3 
17.2273 0.00117498 5.73875 3 
20.1001 0.001477 5.73812 3 
21.5357 1.4354 4.30373 3 
24.4076 1.43515 4.30374 3 
21.5365 1.43655 7.17398 3 
24.4087 1.43628 7.1741 3 
22.9719 2.87044 5.73913 3 
22.9728 0.00139151 5.73786 3 
27.2785 1.4345 4.30437 3 
27.2792 1.43517 7.17512 3 
25.8435 2.8702 5.73939 3 
25.8442 0.000415911 5.73859 3 
1.43639 4.30504 4.30534 3 
1.43641 7.17624 4.30537 3 
1.43674 4.30506 7.17594 3 
1.43674 7.17586 7.17592 3 
2.87151 5.74064 5.74083 3 
0.00174833 5.74027 5.74014 3 
7.17681 4.30524 4.30612 3 
4.30636 4.30515 4.30601 3 
4.30639 7.17643 4.30601 3 
7.17681 7.17615 4.30604 3 
4.30647 7.17604 7.17628 3 
4.30655 4.30515 7.17633 3 
7.17704 4.30523 7.17653 3 
5.74166 5.74066 5.74119 3 
7.1769 7.1757 7.17644 3 
10.0479 4.30525 4.30588 3 
10.0479 7.17568 4.30567 3 
10.048 4.30523 7.17644 3 
8.61235 5.74043 5.74109 3 
10.0477 7.17505 7.17609 3 
11.4837 5.74014 5.74075 3 
15.7914 4.30514 4.305 3 
12.9195 4.30521 4.30546 3 
12.9195 7.17528 4.3052 3 
15.7915 7.17497 4.30467 3 
12.9196 4.30518 7.17618 3 
15.7915 4.30512 7.17582 3 
12.9193 7.17452 7.17561 3 
14.3554 5.7399 5.74034 3 
15.7914 7.17407 7.17507 3 
18.6635 4.30507 4.30452 3 
18.6637 7.17469 4.30414 3 
18.6637 4.30503 7.17535 3 
17.2275 5.73968 5.73986 3 
18.664 7.17367 7.1745 3 
20.0998 5.73947 5.7394 3 
21.5356 4.30498 4.30418 3 
24.4074 4.30494 4.3041 3 
21.5359 7.17457 4.30375 3 
24.4077 7.1748 4.3037 3 
21.536 4.30493 7.17495 3 
21.5367 7.17336 7.17399 3 
22.972 5.73941 5.73912 3 
24.4088 7.17358 7.17407 3 
24.408 4.3049 7.17489 3 
27.2783 4.30499 4.30453 3 
27.2785 7.17549 4.30433 3 
27.2788 4.30497 7.17536 3 
25.8435 5.73968 5.73936 3 
27.2792 7.1748 7.17506 3 
1.43634 10.0478 4.30556 3 
1.43669 10.0472 7.17611 3 
2.87153 8.61197 5.74097 3 
2.87157 11.4835 5.74134 3 
0.00187034 8.61122 5.74004 3 
0.00160027 11.4829 5.74044 3 
4.30658 10.048 4.30622 3 
7.17707 10.0476 4.30616 3 
4.30652 10.0474 7.17654 3 
5.7417 8.61182 5.74123 3 
7.17691 10.0468 7.17648 3 
5.74207 11.4834 5.74166 3 
10.048 10.0469 4.30563 3 
8.61214 8.61104 5.74081 3 
10.047 10.0452 7.17532 3 
11.4833 8.61018 5.74011 3 
8.61249 11.4827 5.74114 3 
11.4833 11.4815 5.74021 3 
12.9195 10.0462 4.30507 3 
15.7915 10.0457 4.30449 3 
12.9183 10.0438 7.17412 3 
14.3551 8.60951 5.73946 3 
15.791 10.0427 7.17313 3 
14.3551 11.4805 5.73945 3 
18.6639 10.0453 4.30388 3 
17.2276 8.60896 5.73879 3 
18.6646 10.0418 7.17208 3 
20.1004 8.60854 5.73816 3 
17.2278 11.4797 5.73867 3 
20.1012 11.4791 5.73769 3 
21.5363 10.0452 4.30333 3 
24.4082 10.0457 4.30334 3 
21.5387 10.0413 7.17124 3 
22.973 8.60856 5.73785 3 
22.9741 11.4795 5.73722 3 
24.411 10.0425 7.17187 3 
27.2784 10.047 4.30443 3 
25.8443 8.60955 5.73851 3 
27.2796 10.0456 7.17462 3 
25.8441 11.4816 5.73874 3 
1.43627 12.9192 4.30591 3 
1.43625 15.7903 4.30613 3 
1.43652 12.9189 7.17666 3 
1.43641 15.7902 7.17716 3 
2.87167 14.3548 5.74179 3 
0.00133053 14.3545 5.74088 3 
4.30685 12.9194 4.30653 3 
4.30708 15.7904 4.3068 3 
7.17765 12.9191 4.30655 3 
7.17814 15.7903 4.30688 3 
4.30682 12.9191 7.17711 3 
7.17762 12.9187 7.17724 3 
4.30709 15.7903 7.17766 3 
5.74257 14.3548 5.74219 3 
7.17842 15.7902 7.17802 3 
10.0487 12.9187 4.30617 3 
10.0495 15.7902 4.30674 3 
10.0476 12.9174 7.17603 3 
8.61337 14.3545 5.74192 3 
10.049 15.7899 7.17747 3 
11.4845 14.354 5.74144 3 
12.92 12.9181 4.30579 3 
15.7919 12.9174 4.30537 3 
12.9211 15.79 4.30685 3 
15.7924 15.7893 4.30668 3 
12.9184 12.9157 7.17453 3 
15.7912 12.9141 7.17346 3 
12.9205 15.7893 7.17706 3 
14.3561 14.3531 5.74116 3 
15.793 15.7876 7.17689 3 
18.6641 12.917 4.30469 3 
18.6639 15.789 4.30595 3 
18.6659 12.9126 7.17197 3 
17.2285 14.352 5.74053 3 
18.6667 15.7861 7.17517 3 
20.1014 14.3516 5.73916 3 
21.5363 12.917 4.30392 3 
21.5353 15.7895 4.30495 3 
24.4075 12.918 4.30395 3 
24.4069 15.7899 4.30446 3 
21.5408 12.9125 7.17042 3 
24.4101 12.9162 7.17275 3 
21.5378 15.7889 7.17381 3 
22.9727 14.3532 5.73871 3 
24.409 15.7894 7.17384 3 
27.2781 12.9187 4.3048 3 
27.2778 15.7901 4.30506 3 
27.2789 12.918 7.17525 3 
25.8434 14.3539 5.73941 3 
27.2784 15.7899 7.17589 3 
1.43628 18.6612 4.30621 3 
1.43645 18.6611 7.17737 3 
2.87174 17.2258 5.74205 3 
2.8718 20.0965 5.74207 3 
0.00127441 20.0966 5.74117 3 
0.00122451 17.2257 5.74117 3 
4.30718 18.6611 4.30691 3 
7.17833 18.6611 4.30701 3 
4.30725 18.6611 7.1779 3 
5.74288 17.2258 5.74254 3 
7.17872 18.6611 7.17839 3 
5.74289 20.0965 5.74257 3 
10.0498 18.6611 4.30694 3 
8.61397 17.2257 5.74243 3 
10.0496 18.6611 7.17804 3 
11.4855 17.2256 5.74243 3 
8.61393 20.0965 5.74246 3 
11.4854 20.0965 5.74245 3 
12.9215 18.6611 4.30723 3 
15.7928 18.6611 4.30738 3 
12.9217 18.6611 7.17832 3 
14.3576 17.2254 5.74306 3 
15.795 18.6611 7.17949 3 
14.3575 20.0968 5.74304 3 
18.6633 18.6611 4.30644 3 
17.2289 17.2245 5.74257 3 
18.6644 18.6611 7.1775 3 
20.0998 17.2251 5.74089 3 
17.2288 20.0978 5.74252 3 
20.0997 20.0972 5.74083 3 
21.5347 18.6611 4.30524 3 
24.4066 18.6612 4.3046 3 
21.5368 18.6612 7.17451 3 
22.9719 17.2254 5.73941 3 
24.4087 18.6612 7.17419 3 
22.9718 20.0969 5.73941 3 
27.2777 18.6612 4.30515 3 
25.8431 17.2255 5.73975 3 
27.2783 18.6612 7.17614 3 
25.8431 20.0968 5.73977 3 
1.43633 21.532 4.30613 3 
1.43635 24.403 4.30593 3 
1.43654 21.5321 7.17721 3 
2.87175 22.9674 5.74186 3 
1.43662 24.4033 7.17676 3 
0.00143317 22.9677 5.74091 3 
4.30712 21.5319 4.30683 3 
7.17812 21.5319 4.30691 3 
7.17758 24.4031 4.3066 3 
4.30688 24.4029 4.3066 3 
4.30719 21.5319 7.17774 3 
7.17843 21.5319 7.17814 3 
4.30691 24.4032 7.17722 3 
5.7426 22.9674 5.74227 3 
7.17765 24.4035 7.17732 3 
10.0485 24.4036 4.30617 3 
10.0494 21.532 4.30673 3 
10.049 21.5322 7.17756 3 
8.61332 22.9677 5.74198 3 
10.0476 24.4048 7.17612 3 
11.4842 22.9682 5.74145 3 
12.9198 24.4042 4.3057 3 
12.9209 21.5322 4.3068 3 
15.7922 21.5328 4.30662 3 
12.9203 21.5329 7.1771 3 
15.7928 21.5346 7.17685 3 
14.3558 22.9692 5.74111 3 
15.791 24.4081 7.1734 3 
12.9182 24.4066 7.17453 3 
15.7915 24.4048 4.30526 3 
18.6636 21.5332 4.30587 3 
18.6637 24.4052 4.3046 3 
18.6665 21.5361 7.1751 3 
17.2282 22.9702 5.74043 3 
18.6656 24.4095 7.17187 3 
20.1012 22.9705 5.73907 3 
21.5351 21.5327 4.30491 3 
24.4068 21.5323 4.30444 3 
21.5361 24.405 4.30387 3 
24.4074 24.4041 4.30398 3 
21.5377 21.5334 7.17377 3 
21.5406 24.4097 7.17036 3 
22.9726 22.969 5.7387 3 
24.409 21.5329 7.17385 3 
24.4101 24.4059 7.17274 3 
27.2778 21.5322 4.30507 3 
27.2781 24.4034 4.30485 3 
27.2785 21.5324 7.17593 3 
25.8434 22.9683 5.73942 3 
27.279 24.4041 7.17532 3 
0.00187351 28.7108 5.74013 3 
1.43637 27.2744 4.30563 3 
2.87154 28.7103 5.74105 3 
1.43676 27.2749 7.17623 3 
2.87164 25.8387 5.74145 3 
0.00165675 25.8392 5.74049 3 
4.30658 27.2744 4.30631 3 
7.17702 27.2748 4.30624 3 
5.74171 28.7105 5.74133 3 
4.3066 27.2748 7.17665 3 
5.7421 25.8389 5.74174 3 
7.17698 27.2755 7.17655 3 
10.0478 27.2755 4.30565 3 
8.6121 28.7114 5.74086 3 
8.61244 25.8396 5.7412 3 
10.047 27.2771 7.17537 3 
11.4831 25.8407 5.74018 3 
12.9193 27.2761 4.305 3 
15.7912 27.2766 4.30439 3 
12.9181 27.2784 7.17413 3 
14.3548 25.8417 5.73938 3 
15.7907 27.2794 7.17309 3 
18.6636 27.2768 4.30381 3 
17.2275 25.8424 5.73856 3 
18.6642 27.2803 7.17203 3 
20.1009 25.8429 5.73762 3 
21.5361 27.2769 4.30332 3 
24.408 27.2764 4.3034 3 
21.5384 27.2807 7.17122 3 
22.9739 25.8426 5.73722 3 
24.4109 27.2796 7.17193 3 
27.2784 27.2751 4.30449 3 
25.844 25.8405 5.7388 3 
27.2796 27.2764 7.17472 3 
2.87153 2.86979 8.6117 3 
0.00194606 2.86998 8.61137 3 
1.43664 1.43458 10.0474 3 
2.87121 2.86998 11.4832 3 
0.00174849 2.8701 11.4832 3 
5.74158 2.87002 8.61186 3 
4.30614 1.43474 10.0473 3 
7.17651 1.43535 10.0473 3 
5.74119 2.87027 11.4832 3 
5.74052 0.000206963 11.4828 3 
8.61243 2.87026 8.61202 3 
11.4837 2.87049 8.61193 3 
10.0478 1.43572 10.0476 3 
8.61219 2.8705 11.4834 3 
11.4839 2.8705 11.4838 3 
8.61117 0.00122913 11.4826 3 
11.4829 0.00123153 8.61097 3 
8.61208 8.54289e-05 8.6117 3 
11.4833 0.00145371 11.4832 3 
14.3555 2.87058 8.61165 3 
12.9194 1.43603 10.0474 3 
15.7915 1.43613 10.0469 3 
14.3558 2.87041 11.4837 3 
14.3548 0.00190946 8.61021 3 
14.3553 0.00163196 11.4827 3 
17.2276 2.87064 8.61118 3 
20.1 2.87072 8.6107 3 
20.1011 0.00312639 8.60851 3 
20.1019 0.0028088 11.4811 3 
18.6642 1.43642 10.0463 3 
17.2278 2.8704 11.4832 3 
20.1002 2.87056 11.4828 3 
17.2275 0.00248152 8.60937 3 
17.2282 0.00183205 11.4819 3 
22.9724 2.87076 8.61045 3 
22.9745 0.00312536 11.4816 3 
21.5371 1.43684 10.0458 3 
24.409 1.43659 10.0463 3 
22.9724 2.87071 11.4828 3 
22.9745 0.0032341 8.60836 3 
25.8438 2.87046 8.61082 3 
27.2793 1.43547 10.047 3 
25.8437 2.87052 11.483 3 
25.8451 0.00144066 8.60992 3 
25.8449 0.00153968 11.4826 3 
1.43661 4.30508 10.0473 3 
2.87149 5.74045 8.61166 3 
1.43658 7.17558 10.0473 3 
2.87114 5.7403 11.4832 3 
0.00193476 5.74008 8.61131 3 
0.00171517 5.74005 11.4832 3 
5.74155 5.74036 8.61184 3 
4.30634 4.30519 10.0474 3 
4.30607 7.17559 10.0473 3 
7.17686 4.30522 10.0476 3 
7.17645 7.17504 10.0473 3 
5.74114 5.74011 11.4832 3 
10.0481 4.3052 10.0479 3 
8.61244 5.74016 8.61201 3 
11.4838 5.73988 8.61188 3 
10.0479 7.17466 10.0475 3 
8.61218 5.73994 11.4834 3 
11.4839 5.73986 11.4837 3 
14.3556 5.73971 8.61163 3 
15.7917 4.30511 10.0476 3 
12.9198 4.30517 10.0478 3 
12.9195 7.17431 10.0473 3 
15.7917 7.1741 10.0469 3 
14.3558 5.73987 11.4836 3 
17.2277 5.7395 8.61121 3 
20.1002 5.73922 8.61071 3 
18.6639 4.30503 10.0471 3 
18.6644 7.17367 10.0463 3 
17.2279 5.73977 11.4832 3 
20.1003 5.73946 11.4828 3 
22.9725 5.73906 8.61045 3 
21.5362 4.30493 10.0468 3 
21.5372 7.17312 10.0458 3 
22.9724 5.73921 11.4828 3 
24.409 7.17331 10.0462 3 
24.408 4.30492 10.0468 3 
25.8438 5.73939 8.61079 3 
27.2788 4.305 10.0471 3 
27.2793 7.17453 10.0469 3 
25.8437 5.73943 11.483 3 
2.87139 8.61146 8.61173 3 
2.87143 11.483 8.61213 3 
0.00186192 11.4822 8.61133 3 
1.43647 10.0468 10.0474 3 
2.87093 8.61107 11.4832 3 
2.871 11.4826 11.4835 3 
0.00208885 8.61069 8.61119 3 
0.00149272 11.4819 11.4832 3 
0.00179713 8.61054 11.4831 3 
5.7412 8.61096 8.61163 3 
5.74143 11.4826 8.61196 3 
4.30591 10.0467 10.0474 3 
7.17562 10.0452 10.0466 3 
5.7404 8.61015 11.4828 3 
5.74036 11.4814 11.4827 3 
8.61203 8.61024 8.61165 3 
11.4829 8.6091 8.6109 3 
8.61214 11.4815 8.61178 3 
11.4811 11.4783 8.60907 3 
10.0472 10.0442 10.0469 3 
8.61117 8.60912 11.4826 3 
11.4834 8.60884 11.4831 3 
8.60931 11.4783 11.4807 3 
11.4827 11.4777 11.4825 3 
14.3549 8.60832 8.61017 3 
14.3531 11.4759 8.60695 3 
12.918 10.0424 10.0454 3 
15.7911 10.0414 10.0442 3 
14.3554 8.60861 11.4826 3 
14.353 11.4747 11.4794 3 
17.2278 8.60765 8.60938 3 
20.1014 8.60691 8.60854 3 
17.2278 11.4741 8.60523 3 
20.1045 11.4724 8.60322 3 
18.6658 10.0401 10.0428 3 
17.2284 8.60833 11.4819 3 
20.102 8.60726 11.4811 3 
17.2293 11.4732 11.4772 3 
20.1085 11.4698 11.4746 3 
22.9746 8.60673 8.60832 3 
22.9797 11.4731 8.60324 3 
21.5412 10.0388 10.0419 3 
22.9746 8.60688 11.4816 3 
22.9799 11.4724 11.4784 3 
24.4118 10.0413 10.0443 3 
25.8451 8.60853 8.60982 3 
25.8457 11.4795 8.60876 3 
27.2796 10.0451 10.0465 3 
25.8449 8.60847 11.4825 3 
25.8453 11.4791 11.4817 3 
2.87152 14.3546 8.61281 3 
1.43629 12.9184 10.0479 3 
1.43616 15.79 10.0486 3 
2.87127 14.3543 11.4842 3 
0.00133597 14.3541 8.61204 3 
0.000884501 14.3537 11.4835 3 
5.74218 14.3545 8.61282 3 
4.30635 12.9186 10.048 3 
7.17626 12.9174 10.0471 3 
4.30687 15.7901 10.0488 3 
7.17768 15.7899 10.0486 3 
5.74156 14.3539 11.4838 3 
8.61351 14.354 8.61315 3 
11.4823 14.3518 8.61058 3 
10.0477 12.9159 10.0474 3 
10.0503 15.7895 10.05 3 
8.61074 14.3518 11.4819 3 
11.4848 14.3507 11.4846 3 
14.3537 14.3489 8.60827 3 
12.9134 12.9089 10.0408 3 
15.788 12.9047 10.0367 3 
12.9159 15.7853 10.0439 3 
15.792 15.7802 10.0407 3 
14.3412 14.3334 11.4667 3 
17.2299 14.3458 8.6064 3 
20.1089 14.3443 8.60278 3 
18.6698 12.9005 10.0326 3 
18.6787 15.7733 10.0353 3 
17.229 14.3222 11.4576 3 
20.1395 14.3105 11.4436 3 
22.9766 14.3514 8.60638 3 
21.5533 12.8986 10.0297 3 
21.5428 15.7894 10.0402 3 
22.9803 14.3443 11.474 3 
24.4126 12.9125 10.0421 3 
24.4092 15.7889 10.0451 3 
25.8442 14.3532 8.61008 3 
27.279 12.917 10.0465 3 
27.278 15.7895 10.0475 3 
25.8439 14.3516 11.4815 3 
2.87164 17.2257 8.61329 3 
2.87172 20.0965 8.61336 3 
0.00122508 20.0967 8.61262 3 
1.43619 18.6611 10.0489 3 
2.87155 17.2255 11.4848 3 
2.87161 20.0965 11.4849 3 
0.00113439 17.2256 8.61261 3 
0.000609924 20.0968 11.4842 3 
0.000517545 17.2254 11.4842 3 
5.74266 17.2256 8.61348 3 
5.74267 20.0965 8.61354 3 
4.3071 18.661 10.0492 3 
7.1782 18.661 10.0492 3 
5.74253 17.2255 11.4849 3 
5.74256 20.0965 11.485 3 
8.61461 17.2256 8.61431 3 
11.4846 17.2254 8.61306 3 
8.61459 20.0965 8.61439 3 
11.4845 20.0967 8.6131 3 
10.0515 18.661 10.0513 3 
8.61316 17.2253 11.4843 3 
11.4896 17.2258 11.4895 3 
8.61316 20.0967 11.4843 3 
11.4895 20.0963 11.4895 3 
14.3579 17.2247 8.61331 3 
14.3578 20.0975 8.61331 3 
12.9197 18.6611 10.0477 3 
15.8011 18.6611 10.0476 3 
14.3463 17.2159 11.473 3 
14.3463 20.1063 11.473 3 
17.2325 17.2208 8.61282 3 
20.1019 17.2255 8.61015 3 
17.2324 20.1015 8.61282 3 
20.1019 20.0969 8.61011 3 
18.6634 18.6612 10.0509 3 
17.25 17.1945 11.4741 3 
20.1043 17.2358 11.4788 3 
17.2499 20.1278 11.4741 3 
20.1043 20.0866 11.4788 3 
22.975 17.2252 8.60795 3 
22.975 20.0972 8.60792 3 
21.5416 18.6612 10.0414 3 
22.973 17.2255 11.481 3 
22.973 20.0969 11.481 3 
24.4085 18.6612 10.046 3 
25.8435 17.2254 8.61092 3 
25.8435 20.0969 8.61094 3 
27.2777 18.6611 10.048 3 
25.8422 17.2251 11.4831 3 
25.8422 20.0972 11.4831 3 
2.87169 22.9676 8.61292 3 
0.00151443 22.968 8.61213 3 
0.00112303 22.9685 11.4836 3 
1.43649 24.4037 10.048 3 
1.43633 21.5322 10.0487 3 
2.87147 22.9679 11.4843 3 
5.74227 22.9677 8.61298 3 
4.30649 24.4036 10.0481 3 
7.17634 24.4048 10.0473 3 
4.307 21.532 10.049 3 
7.1777 21.5322 10.0487 3 
5.74164 22.9682 11.484 3 
8.61349 22.9682 8.61326 3 
11.4822 22.9703 8.6107 3 
10.0477 24.4063 10.0475 3 
10.0502 21.5326 10.0501 3 
8.61075 22.9703 11.482 3 
11.4848 22.9714 11.4847 3 
14.3535 22.9733 8.60827 3 
12.9158 21.5369 10.044 3 
15.7919 21.5421 10.0407 3 
12.9132 24.4133 10.0409 3 
15.7878 24.4175 10.0367 3 
14.3411 22.9888 11.4668 3 
17.2297 22.9764 8.60633 3 
20.1088 22.978 8.60272 3 
18.6786 21.5491 10.0352 3 
18.6696 24.4218 10.0325 3 
17.2289 23.0001 11.4576 3 
20.1395 23.0119 11.4435 3 
22.9765 22.9709 8.60634 3 
21.5533 24.4237 10.0297 3 
24.4093 21.5334 10.0451 3 
22.9804 22.9781 11.474 3 
21.5428 21.533 10.0402 3 
24.4126 24.4097 10.0421 3 
25.8443 22.969 8.61011 3 
27.2781 21.5327 10.0475 3 
27.2792 24.4052 10.0465 3 
25.844 22.9706 11.4815 3 
0.00190671 28.7116 11.4832 3 
0.00212381 28.7114 8.61129 3 
2.87146 28.7108 8.6118 3 
2.87156 25.8392 8.61227 3 
0.0020025 25.8399 8.61144 3 
0.00169091 25.8402 11.4833 3 
1.4366 27.2754 10.0475 3 
2.87118 25.8396 11.4836 3 
2.87107 28.7112 11.4832 3 
5.74129 28.7113 8.61166 3 
5.74155 25.8396 8.61206 3 
5.74052 25.8408 11.4828 3 
7.1757 27.2771 10.0466 3 
4.30606 27.2755 10.0474 3 
8.61216 25.8408 8.61186 3 
11.481 25.8439 8.60919 3 
11.4827 25.8445 11.4826 3 
8.60933 25.8439 11.4808 3 
10.0472 27.278 10.047 3 
14.3528 25.8462 8.60697 3 
14.3529 25.8475 11.4794 3 
15.7908 27.2807 10.0442 3 
12.9178 27.2799 10.0455 3 
17.2275 25.848 8.60518 3 
20.1043 25.8497 8.60315 3 
17.2291 25.849 11.4772 3 
18.6656 27.282 10.0427 3 
20.1084 25.8524 11.4746 3 
22.9797 25.849 8.60322 3 
21.541 27.2832 10.0419 3 
24.4118 27.2808 10.0443 3 
22.9799 25.8498 11.4784 3 
25.8458 25.8426 8.60884 3 
27.2797 27.277 10.0466 3 
25.8455 25.843 11.4818 3 
1.43628 1.43474 12.9192 3 
2.87072 2.87009 14.3551 3 
1.43576 1.43479 15.7913 3 
0.00131642 2.8701 14.3553 3 
4.30563 1.43513 12.919 3 
7.1759 1.43585 12.9189 3 
5.74065 2.87048 14.3551 3 
4.30501 1.43537 15.7911 3 
7.17526 1.43621 15.7911 3 
5.73976 0.00083358 14.3547 3 
10.0474 1.436 12.9193 3 
8.61032 0.00190584 14.3547 3 
11.4826 0.00160078 14.3553 3 
10.0469 1.43615 15.7915 3 
11.4837 2.87045 14.3557 3 
8.61179 2.87063 14.3553 3 
12.9196 1.43574 12.9196 3 
15.7918 1.43548 12.9193 3 
12.9192 1.43551 15.7918 3 
15.7915 1.43517 15.7915 3 
14.3557 2.87025 14.3557 3 
14.3555 0.000827091 14.3556 3 
18.6643 1.43571 12.9187 3 
17.2283 0.000610035 14.3548 3 
20.0999 2.87034 14.3551 3 
17.2277 2.87014 14.3553 3 
18.6638 1.43549 15.7912 3 
20.1012 0.0018116 14.3548 3 
21.5368 1.43639 12.9187 3 
24.4086 1.43639 12.919 3 
21.5363 1.4361 15.7914 3 
24.408 1.43609 15.7916 3 
22.9737 0.00246285 14.3552 3 
22.9719 2.87059 14.3552 3 
25.8433 2.87045 14.3554 3 
25.8443 0.00122436 14.3554 3 
27.2789 1.43547 12.9192 3 
27.2784 1.43531 15.7915 3 
1.43623 4.30512 12.9192 3 
1.43616 7.17549 12.9192 3 
1.43574 4.30512 15.7913 3 
1.43565 7.17547 15.7913 3 
2.87063 5.74021 14.3551 3 
0.00126186 5.74009 14.3553 3 
4.30551 7.17523 12.919 3 
4.30587 4.30519 12.9191 3 
7.17649 4.30522 12.9193 3 
7.17586 7.17457 12.9189 3 
4.3049 7.17499 15.7911 3 
7.17598 4.30522 15.7913 3 
4.30533 4.30518 15.7912 3 
7.17523 7.17422 15.7911 3 
5.74062 5.73996 14.3551 3 
10.048 4.30522 12.9196 3 
10.0475 7.17435 12.9192 3 
11.4837 5.73992 14.3557 3 
8.61178 5.7398 14.3553 3 
10.0476 4.30521 15.7916 3 
10.0469 7.17421 15.7915 3 
12.9199 4.30517 12.9198 3 
15.7918 4.30514 12.9196 3 
12.9197 7.17456 12.9196 3 
15.7919 7.17472 12.9192 3 
12.9196 4.30517 15.7917 3 
15.7915 4.30513 15.7915 3 
12.9193 7.17481 15.7917 3 
15.7916 7.17507 15.7915 3 
14.3557 5.74008 14.3557 3 
18.6639 4.30507 12.9192 3 
18.6644 7.1744 12.9187 3 
17.2278 5.74005 14.3553 3 
18.6635 4.30509 15.7912 3 
18.6639 7.17468 15.7911 3 
20.1 5.7397 14.3551 3 
24.4078 4.30498 12.9192 3 
21.536 4.30498 12.9191 3 
21.5369 7.17364 12.9187 3 
24.4086 7.17361 12.919 3 
21.5356 4.30501 15.7912 3 
21.5363 7.174 15.7913 3 
24.4081 7.17396 15.7916 3 
22.972 5.73942 14.3552 3 
24.4073 4.30502 15.7914 3 
27.2785 4.30505 12.9193 3 
27.2789 7.17461 12.9192 3 
27.2781 4.30506 15.7915 3 
27.2784 7.17481 15.7915 3 
25.8432 5.73959 14.3554 3 
1.43601 10.0466 12.9193 3 
2.87051 11.4823 14.3552 3 
1.43555 10.0466 15.7913 3 
2.87038 8.61085 14.3551 3 
0.00096929 11.482 14.3553 3 
0.00132568 8.61059 14.3553 3 
4.30523 10.0461 12.9189 3 
7.17428 10.0438 12.9179 3 
4.30461 10.0457 15.7911 3 
7.17318 10.0429 15.7906 3 
5.73951 11.4805 14.3546 3 
5.73963 8.60958 14.3547 3 
10.0456 10.0424 12.9176 3 
11.4827 8.60868 14.3552 3 
11.4794 11.4748 14.3528 3 
10.0443 10.0416 15.7907 3 
8.607 11.476 14.3527 3 
8.61033 8.60844 14.3546 3 
12.9192 10.0429 12.919 3 
15.7919 10.0431 12.9177 3 
12.9178 10.0432 15.7917 3 
15.7916 10.0444 15.7914 3 
14.3556 8.60944 14.3555 3 
14.3557 11.4773 14.3555 3 
18.6667 10.0419 12.9165 3 
17.2284 8.60956 14.3547 3 
20.1013 8.60831 14.3547 3 
20.106 11.4732 14.3538 3 
18.6654 10.0431 15.7911 3 
17.2305 11.4765 14.3526 3 
21.5404 10.0401 12.9173 3 
24.411 10.0418 12.9184 3 
22.978 11.4741 14.3552 3 
21.539 10.0414 15.792 3 
24.41 10.0427 15.7921 3 
22.9738 8.60759 14.3552 3 
27.2791 10.0452 12.9191 3 
25.8444 11.4796 14.3552 3 
27.2785 10.0455 15.7916 3 
25.8443 8.60884 14.3554 3 
1.43588 12.9182 12.9195 3 
1.4358 15.7897 12.92 3 
2.87096 14.3539 14.3556 3 
1.43546 12.9182 15.7913 3 
1.43545 15.7897 15.7912 3 
0.000321448 14.3537 14.3552 3 
4.30662 15.7893 15.7919 3 
4.30587 12.9179 12.9194 3 
7.17459 12.9156 12.9179 3 
4.30686 15.7898 12.9204 3 
7.17707 15.7892 12.92 3 
5.74112 14.353 14.3555 3 
4.30536 12.9174 15.7913 3 
7.17337 12.9141 15.7908 3 
7.17673 15.7875 15.7926 3 
10.041 12.909 12.913 3 
10.044 15.7852 12.9156 3 
8.6082 14.3489 14.3533 3 
10.0366 12.9048 15.7877 3 
10.0406 15.7801 15.7917 3 
11.4668 14.3334 14.341 3 
12.9197 12.9109 12.9196 3 
15.7893 12.9068 12.9113 3 
12.9278 15.7878 12.9276 3 
15.7594 15.7444 12.8697 3 
14.3613 14.345 14.3611 3 
12.9114 12.9068 15.789 3 
15.7916 12.9135 15.7914 3 
12.8697 15.7444 15.7592 3 
15.7916 15.827 15.7914 5 
18.6766 12.9013 12.9065 3 
18.7611 15.6861 12.822 3 
20.1256 14.3223 14.3541 3 
17.2376 14.3186 14.3455 3 
18.6718 12.9068 15.7937 3 
18.7134 15.7445 15.8236 3 
21.5506 12.9005 12.9133 3 
21.5479 15.7733 12.9043 3 
24.4111 12.9126 12.9171 3 
24.408 15.7862 12.9163 3 
21.5465 12.9048 15.795 3 
24.4097 12.9141 15.7918 3 
21.5426 15.7803 15.7909 3 
24.4063 15.7876 15.79 3 
22.9768 14.3459 14.3531 3 
27.2782 12.9169 12.9189 3 
27.277 15.7889 12.919 3 
25.8426 14.352 14.3545 3 
27.2776 12.9173 15.7912 3 
27.2763 15.7894 15.7906 3 
1.43586 18.6611 12.9203 3 
1.43552 18.6611 15.7912 3 
2.87155 20.0967 14.3562 3 
2.87144 17.2254 14.3561 3 
4.30732 18.661 12.921 3 
7.1783 18.661 12.9213 3 
5.74301 17.2253 14.3571 3 
5.74306 20.0967 14.3572 3 
4.30736 18.661 15.7924 3 
7.17936 18.661 15.7947 3 
8.6132 20.0974 14.3576 3 
10.0477 18.661 12.9196 3 
10.0474 18.661 15.8008 3 
11.4729 17.2158 14.3461 3 
8.61318 17.2246 14.3575 3 
11.4729 20.1062 14.3462 3 
12.9374 18.6611 12.9374 3 
15.7962 18.6611 12.8172 5 
14.3928 20.0835 14.3927 5 
14.3927 17.2387 14.3927 5 
12.8171 18.661 15.796 5 
20.1092 20.1279 14.333 3 
18.612 18.6612 12.9712 5 
17.3777 16.8235 14.2053 5 
20.1092 17.1946 14.333 3 
16.5408 18.6613 15.0425 5 
18.7662 18.6613 15.7868 5 
17.3777 20.4988 14.2054 5 
21.5323 18.6613 12.9195 3 
24.4057 18.6612 12.9185 3 
21.5357 18.6613 15.7819 3 
24.4038 18.6612 15.7879 3 
22.9704 17.2208 14.3504 3 
22.9705 20.1017 14.3504 3 
28.712 20.097 14.3553 3 
27.2766 18.6611 12.9195 3 
28.7119 17.2253 14.3553 3 
27.2757 18.6612 15.7901 3 
25.8406 17.2245 14.354 3 
25.8406 20.0979 14.3541 3 
1.43599 21.5324 12.92 3 
1.43611 24.404 12.9196 3 
2.87119 22.9682 14.3557 3 
1.43561 21.5325 15.7913 3 
1.43568 24.4041 15.7913 3 
0.000522172 22.9685 14.3553 3 
4.307 21.5322 12.9205 3 
7.17712 21.5328 12.9201 3 
4.30606 24.4042 12.9195 3 
7.17469 24.4065 12.918 3 
4.30677 21.5329 15.7919 3 
7.17682 21.5345 15.7927 3 
4.30555 24.4048 15.7914 3 
7.1735 24.4081 15.7909 3 
5.74126 22.9691 14.3556 3 
10.044 21.5368 12.9157 3 
10.041 24.4132 12.9132 3 
10.0406 21.5419 15.7918 3 
10.0367 24.4174 15.7877 3 
11.4668 22.9887 14.3411 3 
8.60829 22.9732 14.3534 3 