ITEM: TIMESTEP
21000
ITEM: NUMBER OF ATOMS
2001
ITEM: BOX BOUNDS pp pp pp
0.0000000000000000e+00 2.8712000000000000e+01
0.0000000000000000e+00 2.8712000000000000e+01
0.0000000000000000e+00 2.8712000000000000e+01
ITEM: ATOMS x y z 
1.46085 1.50477 1.55394 
2.80236 3.02328 2.98553 
0.0451033 2.78114 2.90572 
2.83909 0.0541136 2.78251 
4.34601 1.4669 1.63777 
7.17123 1.38161 1.59183 
5.75598 2.96757 2.8608 
5.86147 0.109499 2.92132 
5.62301 2.93417 0.106053 
10.178 1.47001 1.48762 
8.68273 2.83915 2.93615 
11.3762 2.92873 2.79198 
8.6575 0.0991371 2.85409 
8.6646 0.212598 0.0752807 
11.4692 0.0446921 2.82804 
8.45226 2.8509 0.187915 
12.8355 1.57189 1.39486 
15.905 1.3312 1.25006 
14.2968 2.83927 2.77352 
14.2211 2.9299 0.207001 
14.3111 0.0892139 2.76746 
18.6968 1.43165 1.48967 
17.0923 2.83391 2.79458 
20.068 2.87156 2.86121 
20.2187 0.0961318 2.9876 
21.5831 1.66129 1.33796 
24.3793 1.56168 1.37775 
22.8879 2.81439 2.84937 
23.0881 0.144622 2.67267 
22.9528 2.92738 0.00315922 
27.3307 1.31781 1.3656 
26.051 2.78375 2.77777 
1.19489 4.15644 1.48777 
1.32198 6.97109 1.44418 
2.91898 5.80358 2.96183 
2.86065 5.75528 0.08577 
4.18515 4.26854 1.57298 
7.27078 4.28347 1.41259 
4.41131 7.25924 1.48345 
7.19967 7.14891 1.49545 
5.6334 5.77772 2.99068 
5.8556 5.62195 0.236943 
9.96945 4.27247 1.31331 
10.0616 7.25739 1.32886 
8.62613 5.79542 2.75075 
11.4803 5.84358 2.70995 
8.66451 5.71956 0.020995 
12.8601 4.6756 1.40059 
15.761 4.3083 1.29596 
12.8598 7.39317 1.39239 
15.7016 7.25892 1.40139 
14.3141 5.88182 2.93096 
18.6606 4.30633 1.33818 
18.8974 7.10744 1.46257 
17.3309 5.80669 2.95391 
20.0588 5.86123 2.86235 
17.044 5.7326 0.0684035 
21.6392 4.4812 1.60884 
21.5032 7.14857 1.34684 
23.0455 5.88325 2.91551 
24.4579 6.99727 1.46777 
24.5137 4.23438 1.44858 
28.5019 5.8802 2.86362 
27.3511 4.33734 1.26522 
27.1432 7.1804 1.40478 
25.8821 5.70857 2.81949 
1.1613 9.92089 1.40432 
2.84369 8.40543 2.95869 
2.66903 11.5215 2.62109 
0.0135687 8.46436 2.88698 
2.81857 8.53159 0.197991 
4.31763 10.0603 1.5135 
7.21517 10.034 1.56041 
5.76263 8.45917 2.97154 
5.80649 11.427 2.92399 
5.92798 11.5918 0.106071 
5.8229 8.6466 0.0927647 
10.0647 10.0956 1.46686 
8.64943 8.69871 2.75584 
11.5074 8.59296 2.84658 
8.78252 11.345 2.94937 
11.4415 11.3503 2.96565 
8.74435 11.5982 0.075341 
8.56998 8.72933 0.0566569 
14.3131 8.72719 0.0325078 
12.7934 10.2654 1.45137 
15.6746 10.2282 1.37281 
14.3327 8.73091 2.85599 
14.229 11.4285 2.8006 
17.1605 8.63354 0.0196316 
18.8952 10.1034 1.40327 
17.2937 8.49709 2.83968 
20.144 8.56231 3.01456 
17.1205 11.5031 2.81146 
20.0397 11.4017 2.90258 
20.1342 8.66404 0.108024 
17.256 11.4343 0.168795 
21.5295 9.86906 1.44079 
24.4468 10.1837 1.33556 
23.0835 8.52781 2.79479 
22.9682 11.3089 2.88705 
23.0267 8.58032 0.0655878 
23.0691 11.4717 0.102862 
28.4569 11.4184 2.82023 
28.4568 11.3904 0.212611 
27.0973 9.77553 1.59633 
25.6123 8.65601 2.99865 
25.8622 11.4145 2.85382 
25.8203 11.4998 0.135526 
28.4704 8.64174 0.0346526 
1.55492 13.029 1.22134 
1.56438 15.9646 1.48933 
2.84368 14.453 2.80151 
4.29383 12.9895 4.04641 
4.39386 13.0352 1.23488 
7.2219 12.9972 1.5326 
4.15566 16.1134 1.44879 
7.27844 15.6276 1.43816 
5.62837 14.4376 2.8649 
5.77937 14.3425 0.00345185 
10.053 13.112 1.43399 
9.94306 15.8042 1.48129 
8.67277 14.2114 3.10196 
11.6083 14.4707 2.96369 
11.5119 14.4514 0.024043 
12.9346 12.9939 1.53617 
15.8089 13.1308 1.38836 
13.0393 15.7694 1.40702 
15.8022 15.9007 1.36599 
14.3401 14.4034 2.93653 
18.7441 12.8852 1.6158 
18.6538 15.766 1.43752 
16.9351 14.3955 2.80397 
20.1078 14.3167 2.91146 
20.0094 14.3608 0.0248199 
21.597 12.9353 1.44313 
24.4125 12.8964 1.4661 
21.5398 15.8277 1.4262 
23.0462 14.2609 2.88694 
24.4298 15.7258 1.55777 
22.8059 14.416 0.0607277 
28.6845 14.2391 2.76719 
27.3152 12.992 1.42445 
27.2579 15.6996 1.70695 
25.8724 14.2823 2.94366 
25.9283 14.2967 0.16942 
28.5908 14.3344 0.0728318 
1.43849 18.7584 1.59694 
2.87441 17.1832 2.99608 
2.91978 20.1911 2.79839 
0.0708586 20.2004 2.91911 
0.0430073 17.0894 0.0581735 
4.32741 18.5311 1.23995 
7.16678 18.3308 1.52698 
5.66776 17.2387 2.89924 
5.87954 20.1201 2.73561 
5.70164 17.1836 0.0147702 
10.1417 18.6244 1.58599 
8.71627 17.3548 3.05013 
11.5458 17.1032 2.87192 
8.62669 19.9436 2.80882 
11.6002 20.0291 2.94238 
8.70359 19.9846 0.0854923 
12.9688 18.8071 1.49267 
15.8984 18.7337 1.65291 
14.2621 17.3642 2.84772 
14.4046 20.3367 2.82754 
14.429 17.3569 0.0187051 
14.5988 20.1686 0.0166402 
18.593 18.5823 1.47712 
17.2186 17.0936 2.9683 
20.1059 17.3462 2.8878 
17.3513 20.3327 2.7556 
20.0547 20.0237 2.71223 
21.5156 18.7097 1.49119 
24.4744 18.5673 1.46732 
23.1574 17.2282 2.80883 
23.0988 20.1684 2.75077 
28.6812 17.2251 2.94721 
25.9628 17.1433 0.105529 
27.279 18.7079 1.29993 
25.9856 17.1308 2.98004 
25.8242 20.2119 2.81969 
1.44334 21.4572 1.34387 
1.44413 24.4936 1.47873 
3.04957 22.9805 2.84819 
2.9391 22.9797 0.122529 
0.0353375 23.022 2.94564 
4.31377 24.4552 1.39132 
4.34217 21.5029 1.46742 
7.32176 21.4629 1.52003 
5.70592 22.9546 2.83003 
7.18865 24.2887 1.28202 
10.1448 21.2894 1.28543 
8.66607 22.8597 2.797 
11.4936 22.9288 2.7609 
10.1911 24.3875 1.35802 
9.95994 24.4389 4.0764 
8.79158 23.1041 0.032689 
11.5383 23.0097 0.0312828 
12.8779 21.5811 1.41707 
15.856 21.6484 1.37344 
14.3872 23.0936 2.60797 
12.9981 24.549 1.4515 
15.7823 24.5644 1.35104 
12.8567 24.4386 4.01274 
14.434 23.0156 0.1104 
18.6369 21.5416 1.34848 
18.6785 24.4308 1.35802 
17.1996 23.1874 2.84074 
20.1269 23.0835 2.79512 
17.0708 23.1819 0.136922 
21.5853 21.4266 1.27138 
24.5062 21.7405 1.32892 
21.6206 24.2398 1.41898 
23.0127 22.8619 2.75536 
28.6521 23.0625 0.148498 
27.1425 21.627 1.3745 
26.0113 23.1132 2.93293 
25.6978 23.1279 0.050077 
1.2931 27.1539 1.50819 
3.07753 25.7338 2.90889 
0.0942544 28.5635 0.0235824 
3.00045 25.8415 0.0791757 
4.34029 27.3521 1.42715 
7.28865 27.2827 1.47 
5.91983 25.9026 2.8515 
9.99733 27.2811 1.48575 
8.62901 25.7909 2.83147 
11.421 25.9648 2.76612 
11.426 28.6521 0.0101988 
12.982 27.3648 1.37603 
15.6941 27.2633 1.51662 
14.275 25.9678 2.87336 
17.0833 28.6082 2.76289 
18.6789 27.4434 1.40295 
17.2124 25.7597 2.97404 
20.0165 25.8316 2.77877 
24.3546 24.6566 1.34547 
21.3477 27.179 1.43149 
22.8586 25.8789 2.78236 
24.2887 27.2971 1.38238 
25.894 28.6924 2.87906 
27.3158 24.6303 1.41459 
28.6401 28.6407 3.08591 
28.5884 25.839 2.98003 
27.2265 27.3011 1.3899 
25.6774 25.7948 2.79515 
25.8372 28.6881 0.0829641 
25.7915 25.9516 0.0664292 
28.7107 25.7844 0.0180332 
1.44321 1.36765 4.45764 
1.53885 1.429 7.34722 
2.89832 2.84098 5.81577 
0.319249 2.79858 5.78301 
0.0778567 0.0829173 5.74078 
4.1714 1.55257 4.41114 
7.17972 1.37146 4.2579 
4.21705 1.39655 7.15964 
7.29992 1.4695 7.18854 
5.95705 2.69979 5.8105 
10.0625 1.60463 4.31738 
10.2093 1.47977 7.2033 
8.81451 3.02186 5.84963 
11.6235 3.00603 5.53099 
11.5159 0.067474 5.44363 
12.957 1.51367 4.23721 
15.692 1.45265 4.20454 
12.8267 1.52865 7.13626 
15.8423 1.42379 7.41854 
14.3074 2.91753 5.64266 
18.4406 1.63341 4.20638 
18.6942 1.41598 7.45225 
17.2789 2.92149 5.78538 
20.1292 2.69309 5.77369 
21.5571 1.54522 4.4467 
24.309 1.51261 4.3095 
21.4989 1.3837 7.18976 
24.4334 1.30022 7.2674 
23.077 2.89866 5.70131 
23.0208 0.059635 5.52288 
27.4456 1.47451 4.42615 
27.3159 1.46912 7.20751 
25.7775 2.78559 5.63964 
1.36417 4.43013 4.51389 
1.3333 7.34396 4.51263 
1.44707 4.40622 7.28713 
1.47641 7.30416 7.34165 
2.89404 5.7923 5.84364 
0.0531587 5.88579 5.71521 
7.27355 4.25122 4.1782 
4.31647 4.39494 4.53764 
4.40082 7.20443 4.48868 
7.21473 7.26238 4.36132 
4.47844 7.03316 7.29232 
4.45993 4.12833 7.37383 
7.35095 4.19673 7.30301 
5.96762 5.75064 5.96025 
7.39976 7.14606 7.43668 
10.0233 4.40646 4.23807 
10.1089 7.05418 4.21855 
10.1929 4.34334 7.29363 
8.61269 5.72915 5.81092 
10.0883 6.96577 7.24119 
11.5656 5.6909 5.80459 
15.708 4.3763 4.20375 
12.9575 4.43367 4.16149 
12.6898 7.09152 4.33913 
15.7622 7.19119 4.37403 
12.9763 4.36462 7.14518 
15.6909 4.24795 7.10898 
13.1346 7.28953 7.35764 
14.3523 5.63669 5.75209 
15.8241 7.42173 7.14644 
18.7801 4.22418 4.2863 
18.6747 7.20515 4.50496 
18.8967 4.23418 7.23416 
17.118 5.85819 5.77946 
18.6788 7.26207 7.12258 
19.9456 5.73327 5.78098 
21.5549 4.40636 4.45543 
24.4778 4.23224 4.11592 
21.475 6.98615 4.56866 
24.4751 7.20406 4.43217 
21.613 4.39779 7.17728 
21.7213 7.32168 7.28448 
22.8623 5.63919 5.76579 
24.4906 7.01336 7.03772 
24.4225 4.2859 7.13384 
27.3418 4.19366 4.5433 
27.2729 7.3093 4.41838 
27.3813 4.36463 7.0997 
25.8834 5.56173 5.8417 
27.1905 7.0538 7.10198 
1.42022 10.0821 4.28421 
1.57026 10.1683 7.1127 
3.02308 8.46807 5.85107 
2.87109 11.4853 5.43965 
0.126418 8.75889 5.91873 
4.51032 9.89439 4.33596 
7.02842 9.9412 4.37493 
4.37155 10.1171 7.19378 
5.77471 8.54647 5.95438 
7.28831 10.0963 7.29598 
5.6767 11.4167 5.77337 
10.1002 9.94408 4.24461 
8.70803 8.62334 5.53497 
9.98487 9.96693 7.29504 
11.4193 8.69766 5.87651 
8.76631 11.4018 5.78196 
11.4482 11.517 5.84234 
12.9673 10.0936 4.36443 
15.9419 10.0122 4.20028 
13.1295 10.1893 7.25301 
14.318 8.6861 5.65157 
15.6241 10.0942 7.06035 
14.5045 11.5426 5.6618 
18.6575 10.1422 4.14845 
17.3261 8.73306 5.59699 
18.621 10.1742 7.09736 
20.1608 8.81479 5.84315 
17.1128 11.5299 5.87256 
20.1904 11.6116 5.58228 
21.5395 10.1026 4.35055 
24.4106 10.1612 4.2689 
21.6352 10.0615 7.30821 
22.8754 8.59146 5.5537 
23.2194 11.3934 5.8378 
24.4001 9.95552 7.27163 
27.3954 9.95801 4.34159 
28.5781 11.5175 5.84489 
25.7887 8.6852 5.89192 
27.1486 10.201 7.29706 
25.802 11.5381 5.86811 
1.22327 12.8091 4.16081 
1.39456 15.8142 4.21266 
1.36407 12.8644 7.0684 
1.43178 15.6017 7.13966 
2.67892 14.2435 5.66306 
4.27975 15.7714 4.32559 
7.09618 12.8003 4.46045 
7.15672 15.6456 4.30833 
4.30667 12.8252 7.13521 
6.935 12.8487 7.07296 
4.36621 15.6086 7.33057 
5.58002 14.3589 5.77059 
7.10225 15.7261 7.25261 
10.1395 12.9403 4.4174 
9.89726 15.7265 4.26857 
10.0275 12.9531 7.21207 
8.5222 14.2742 5.83865 
10.0017 15.7732 7.0856 
11.5001 14.3865 5.77297 
12.9245 12.8126 4.43268 
15.7897 12.8813 4.23565 
12.9823 16.02 4.3607 
15.7307 15.6935 4.37109 
12.9308 12.9084 7.28483 
15.9089 12.9309 7.16198 
12.8066 15.8449 7.26988 
14.3156 14.2923 5.74661 
15.7816 15.8033 7.19007 
18.5609 12.8927 4.30619 
18.6283 15.6709 4.41798 
18.6215 12.8967 7.04348 
17.2861 14.3223 5.82873 
18.7001 15.8348 7.24156 
19.9759 14.1856 5.6827 
21.6725 12.9405 4.30781 
21.4494 15.8077 4.11148 
24.4365 12.8228 4.33844 
24.5806 15.7735 4.38235 
21.5456 12.6723 7.06261 
24.5255 12.8353 7.21488 
21.4937 15.7952 7.11173 
22.8346 14.2963 5.70408 
24.2167 15.7655 7.07864 
27.1735 12.8388 4.2241 
27.4243 15.8113 4.2311 
28.6501 14.2179 5.74483 
27.2714 12.7782 7.2915 
25.9444 14.4142 5.68714 
27.2063 15.6113 7.03749 
1.51431 18.6357 4.42179 
1.43978 18.4843 7.2404 
2.84273 17.1778 5.74103 
2.84428 20.0554 5.86623 
0.102047 20.1021 5.94709 
4.28314 18.4776 4.30004 
7.10592 18.4449 4.41532 
4.21233 18.543 7.16044 
5.72605 16.9967 5.81619 
7.07679 18.5308 7.15183 
5.72689 19.8396 5.62184 
9.99567 18.6651 4.51038 
8.39076 17.2171 5.67605 
9.98411 18.3161 7.11458 
11.5368 17.151 5.67205 
8.62726 20.2055 5.72476 
11.4059 20.2203 5.77497 
13.0475 18.6275 4.45825 
15.8144 18.6343 4.18275 
12.8724 18.6625 7.0886 
14.3685 17.1859 5.82248 
15.832 18.6972 7.12356 
14.3678 20.0882 5.82958 
18.5602 18.7148 4.14405 
17.2608 17.1131 5.79136 
18.7895 18.798 6.99446 
20.1717 17.1597 5.71208 
17.1657 20.1101 5.75337 
20.0591 20.1576 5.6179 
21.6341 18.7606 4.15914 
24.3533 18.5371 4.36703 
21.6177 18.7537 7.14624 
22.8374 17.213 5.63055 
24.3271 18.6764 7.09171 
22.9377 20.2856 5.68824 
27.2121 18.7976 4.25196 
28.6776 17.2109 5.77132 
25.8043 17.1991 5.8084 
27.2421 18.756 7.01498 
25.8925 20.0907 5.93773 
1.401 21.6137 4.43693 
1.40752 24.4781 4.26416 
1.34349 21.6624 7.2018 
2.78294 22.9285 5.64476 
1.5095 24.4169 7.06846 
4.38789 21.3065 4.35698 
7.20709 21.4707 4.28445 
7.39152 24.3747 4.29629 
4.40977 24.3962 4.37456 
4.28766 21.6594 6.92076 
7.26436 21.3497 7.06179 
4.46163 24.3543 7.1291 
6.02622 22.871 5.51839 
7.19161 24.2138 7.12943 
10.0099 21.5032 4.28484 
10.0347 21.4497 7.18664 
8.69664 22.9865 5.83373 
9.82716 24.536 7.2993 
11.3508 23.2663 5.61367 
12.8735 21.6568 4.24181 
15.6847 21.6213 4.26507 
12.7468 21.3526 7.16807 
15.9044 21.4683 7.16407 
14.3312 22.8357 5.68146 
15.6239 24.1918 7.39465 
12.7718 24.3519 7.12346 
18.599 21.8086 4.2172 
18.6445 24.4653 4.22575 
18.6751 21.6414 7.25055 
17.0879 23.114 5.68213 
18.7132 24.4012 7.22261 
20.08 22.8878 5.72755 
21.4902 21.501 4.27431 
24.4265 21.592 4.38875 
21.4402 24.4134 4.25526 
24.4821 24.4872 4.16177 
21.4847 21.5857 7.11749 
21.5328 24.3348 7.1422 
22.9632 22.9618 5.58523 
24.4622 21.6577 7.17817 
24.3949 24.2774 7.14433 
27.1785 21.5537 4.35723 
27.1961 24.3893 4.32795 
28.7079 22.9801 5.61186 
27.3344 21.4577 7.2049 
25.9952 23.0574 5.92002 
27.3136 24.487 7.25333 
1.4272 27.143 4.29291 
2.82946 28.6339 5.83674 
1.53249 27.1633 7.19828 
2.93904 25.8674 5.78963 
4.46281 27.531 4.15919 
7.23649 27.3011 4.18645 
5.76851 28.6203 5.58248 
4.24486 27.2353 7.16126 
5.81577 25.8001 5.56199 
7.27131 27.2429 7.22195 
9.98414 27.2771 4.3413 
8.71069 28.6458 5.67097 
8.49055 25.872 5.67946 
10.13 27.2811 7.16254 
11.3422 25.7115 5.65277 
15.6214 24.6997 4.28845 
12.9692 27.3526 4.1399 
15.6197 27.2747 4.19321 
14.2238 28.6583 5.74594 
12.8436 27.2718 7.1387 
14.2279 25.8714 5.71914 
15.6147 27.428 7.15344 
18.5784 27.4227 4.18378 
17.0196 28.631 5.53071 
20.0155 28.6401 5.64111 
17.1131 25.8326 5.98847 
18.6213 27.2453 7.03505 
19.9579 25.7111 5.70939 
21.5523 27.2557 4.22751 
24.3969 27.3459 4.32707 
21.5745 27.1691 7.01843 
22.9752 25.7766 5.70059 
24.4327 27.127 7.17977 
27.2081 27.2346 4.49166 
25.8656 28.5519 5.73145 
28.6573 25.8137 5.76055 
25.8109 25.8655 5.71426 
27.3017 27.2297 7.22731 
3.05191 2.75201 8.6518 
0.0259168 2.83898 8.68481 
0.0340559 0.0368307 11.5326 
1.49293 1.39899 10.1359 
2.93063 2.70573 11.4024 
1.54948 4.09779 9.89265 
5.90309 2.80069 8.79464 
5.84421 0.0722539 8.61429 
4.5766 1.4828 10.1305 
7.2835 1.3564 10.1047 
5.9432 2.79426 11.4351 
8.83103 2.74424 8.71685 
11.7368 2.76274 8.65538 
10.309 1.31203 10.1781 
8.76897 2.79914 11.5423 
11.5824 2.80067 11.4755 
8.68359 0.0465203 11.5782 
10.0716 4.00708 10.1861 
14.174 2.8428 8.60995 
13.0066 1.41016 10.1005 
15.7048 1.53156 9.83518 
14.3599 2.77686 11.5276 
17.2131 3.09192 8.39657 
20.3105 2.72399 8.64616 
20.1759 0.022301 8.70894 
20.1679 0.0695581 11.5423 
18.7008 1.4542 10.0509 
17.1619 2.92144 11.3157 
19.9959 2.85979 11.6168 
22.9309 2.7941 8.61083 
22.9694 0.0128868 11.5002 
21.6259 1.29029 10.1245 
24.3633 1.16422 9.91396 
23.0276 2.70679 11.4464 
25.8477 3.11552 8.76745 
28.7091 0.0263982 8.6541 
28.7033 3.02225 11.5055 
27.3266 1.53392 10.1416 
25.6919 2.83393 11.484 
3.06112 5.55838 8.52746 
1.48467 7.05731 9.92638 
2.84032 5.61925 11.3487 
5.90902 5.63791 8.80402 
4.4175 4.21313 10.0693 
4.40063 7.10373 10.1403 
7.27293 4.22934 10.1567 
7.163 7.07281 10.2857 
5.7473 5.73825 11.7584 
8.68872 5.50951 8.73402 
11.5203 5.77681 8.67941 
9.98139 7.14987 10.0726 
8.56883 5.81259 11.5994 
11.5345 5.98729 11.3596 
14.3147 5.68779 8.66942 
15.6476 4.30598 10.0536 
12.8073 4.27206 10.125 
13.1128 7.25337 10.1154 
15.9687 7.13827 9.90035 
14.5382 5.81668 11.5157 
17.2208 5.84335 8.36977 
20.2131 5.77921 8.48197 
18.5963 4.41159 10.1108 
18.8196 7.12949 9.99547 
17.1106 5.81715 11.5244 
20.1803 5.74276 11.4998 
22.8626 5.6385 8.61426 
21.4399 4.12987 10.1406 
21.5374 6.94654 9.98025 
22.987 5.3733 11.6085 
24.3904 7.03009 10.1239 
24.3514 4.20812 10.0454 
28.6093 5.89882 8.57906 
25.8528 5.64234 8.65148 
28.6479 5.5348 11.2188 
27.2251 4.26069 10.078 
27.1195 7.22472 9.92703 
25.79 5.80681 11.8095 
2.8563 8.66216 8.68577 
2.99975 11.514 8.63504 
0.16199 11.3399 8.77922 
1.49688 10.0738 10.1388 
2.83736 8.37154 11.4503 
2.79318 11.534 11.4368 
5.80297 8.45484 8.6882 
5.74071 11.4699 8.65762 
4.36243 10.1239 10.0094 
7.04932 9.97439 10.0559 
5.55342 8.43704 11.6291 
5.64315 11.5334 11.4455 
8.79496 8.52824 8.77804 
11.487 8.51088 8.65106 
8.54714 11.5614 8.75742 
11.5249 11.5242 8.55937 
9.99967 10.1295 10.0215 
8.59009 8.57285 11.647 
11.4184 8.57002 11.5112 
8.48797 11.4153 11.5037 
11.5477 11.4907 11.5028 
14.5678 9.02396 8.84186 
14.5511 11.6916 8.75048 
13.0471 10.1796 10.1067 
15.9479 10.2095 10.1545 
14.5215 8.60824 11.3275 
14.3779 11.5858 11.5042 
17.1968 8.70974 8.64372 
20.1281 8.62516 8.57888 
17.2456 11.524 8.57569 
20.2266 11.4016 8.62686 
18.7113 10.0503 10.1155 
17.4886 8.58937 11.7353 
20.0238 8.44011 11.5309 
17.3333 11.3744 11.7087 
20.0098 11.2652 11.5094 
23.0699 8.57783 8.53213 
23.1046 11.2739 8.64689 
21.5968 9.64936 10.0683 
23.1351 8.40765 11.375 
23.0041 11.447 11.2666 
24.4367 9.99566 10.1361 
28.68 8.73624 8.4497 
25.9056 8.65441 8.64505 
25.8148 11.4444 8.82873 
28.59 11.3673 11.5899 
28.6323 8.38002 11.4979 
27.3333 9.8632 9.96162 
25.8169 8.3726 11.626 
25.8522 11.4174 11.4933 
2.83767 14.3213 8.74822 
1.45994 12.9085 10.0142 
1.2756 15.7686 9.9552 
2.68927 14.429 11.5051 
5.69385 14.27 8.70063 
4.14207 13.0308 10.0266 
7.18976 12.9181 9.99756 
4.35773 15.8 10.1432 
7.29271 15.6836 10.0284 
5.74227 14.3098 11.3528 
8.66203 14.2694 8.47977 
11.4826 14.5297 8.82084 
10.1032 13.0106 10.1293 
9.92438 15.6149 10.0274 
8.6676 14.2671 11.5327 
11.3388 14.4411 11.7056 
14.4244 14.4305 8.71601 
12.9111 12.9221 10.1248 
15.9924 13.053 9.86902 
13.0365 15.6624 10.1451 
15.9614 15.6708 10.0507 
14.3717 14.3816 11.6011 
17.2937 14.4348 8.61178 
20.1582 14.2705 8.60499 
18.8288 12.8344 10.0907 
18.7191 15.723 10.112 
17.1509 14.1843 11.5755 
20.1192 14.2589 11.3943 
22.7745 14.2291 8.5214 
21.5207 12.6762 10.0733 
21.6601 15.6937 9.96044 
23.0252 14.3339 11.5437 
24.4855 13.0712 10.2089 
24.1358 15.5846 9.99416 
28.6097 14.1277 8.61871 
25.8164 14.2661 8.73528 
28.5275 14.3864 11.281 
27.1307 12.8542 10.1491 
27.2025 15.8618 10.1446 
25.7653 14.4097 11.6111 
2.87249 17.2354 8.73704 
2.80443 20.0452 8.47347 
0.0369024 20.3451 8.85106 
1.41916 18.6084 10.2315 
2.73132 17.1004 11.387 
2.86965 20.0459 11.6427 
5.70512 17.1479 8.57139 
5.77275 20.0429 8.32406 
4.32288 18.4397 10.135 
7.11331 18.5458 9.89512 
5.73722 17.2335 11.5242 
5.66039 19.7978 11.5621 
8.65923 17.1139 8.62175 
11.512 17.1328 8.61322 
8.51026 20.0537 8.56066 
11.4542 19.7033 8.51959 
9.96517 18.5505 10.0179 
8.65861 17.1779 11.5293 
11.4885 17.2282 11.4752 
8.70171 19.9838 11.2915 
11.4625 20.0708 11.4539 
14.2994 17.1728 8.53921 
14.3185 20.0983 8.53654 
12.9475 18.5479 10.0396 
15.8706 18.6511 9.93311 
14.603 17.2296 11.4501 
14.3468 20.0112 11.4427 
17.2868 17.1982 8.64638 
20.0849 17.1884 8.43433 
17.1342 20.1191 8.40663 
20.2012 20.0735 8.58026 
18.7647 18.7165 9.93844 
17.385 17.2298 11.3876 
20.0583 17.0315 11.2782 
17.1831 20.2163 11.2542 
20.1414 20.0381 11.561 
22.9197 17.198 8.46067 
23.04 20.218 8.55868 
21.6236 18.7273 9.96043 
22.8531 17.1868 11.3542 
22.9704 20.0509 11.5283 
24.4473 18.6115 9.91993 
28.6971 17.2155 8.65337 
25.9433 17.3195 8.6285 
25.916 20.1001 8.66511 
28.5808 20.0543 11.3424 
28.6443 17.2355 11.5517 
27.404 18.6416 10.0665 
25.7179 17.1545 11.4006 
25.7714 20.3339 11.4597 
3.09801 22.9805 8.60084 
0.0376806 23.0611 8.59015 
0.0647338 22.7204 11.4768 
1.55682 24.239 10.0569 
1.64811 21.536 10.0882 
2.92254 22.7198 11.4858 
5.78957 22.8735 8.38323 
4.53081 24.2999 10.0728 
7.30035 24.3416 9.91027 
4.51291 21.2587 9.87047 
7.21906 21.6072 9.90798 
5.8225 22.8824 11.4478 
8.82865 22.7955 8.57695 
11.5204 22.9839 8.6893 
9.9899 24.3841 10.0938 
10.2466 21.4242 9.99693 
8.62352 23.0203 11.4444 
11.7053 22.8117 11.5139 
14.1009 22.8234 8.64915 
12.9392 21.3185 10.1735 
15.7617 21.4163 10.1046 
13.0351 24.4339 10.0479 
15.8353 24.3901 10.0322 
14.3826 23.0262 11.3975 
17.249 22.9617 8.54495 
20.0276 22.8399 8.62424 
18.7243 21.4907 9.95266 
18.677 24.4706 10.1045 
17.2947 22.9695 11.412 
20.0058 23.0125 11.5111 
22.949 23.064 8.50825 
21.4451 24.2862 9.99608 
24.389 21.692 10.0451 
22.7698 22.8983 11.5217 
21.479 21.3927 9.98049 
24.4325 24.29 9.94222 
25.8507 22.7743 8.61878 
27.2231 21.6974 10.1165 
27.2681 24.3296 10.0725 
25.7696 22.9412 11.5525 
3.09536 28.6591 8.74022 
3.03494 25.6946 8.68428 
0.117864 25.7072 8.54945 
0.0660389 25.6985 11.199 
1.57363 27.2189 9.87779 
2.84252 25.7904 11.5392 
3.00873 28.6034 11.407 
5.77659 25.9495 8.43822 
5.8706 28.6242 11.6542 
5.88151 25.8828 11.323 
7.32056 27.3577 9.90597 
4.42213 27.2396 10.077 
11.4693 28.6397 8.69202 
8.61196 28.7075 8.48651 
8.63536 25.8751 8.68504 
11.506 25.8509 8.62449 
11.3325 25.8771 11.3236 
11.5751 28.4987 11.651 
8.56296 25.9947 11.3956 
10.1726 27.1925 10.0018 
14.2743 28.6059 8.75507 
14.3008 25.9588 8.56345 
14.351 28.6183 11.5349 
14.3481 25.9517 11.4293 
15.8711 27.281 10.0272 
12.9473 27.1747 10.0117 
17.3124 28.5447 8.41459 
17.0118 25.7789 8.35798 
20.1739 26.0248 8.52651 
17.1763 28.5868 11.3274 
17.2352 26.0212 11.5118 
18.7006 27.4232 9.9826 
20.3237 25.9312 11.3782 
22.989 28.4613 8.58951 
22.9115 25.8081 8.72462 
21.5674 27.3193 9.95644 
24.5713 27.2661 10.0395 
23.012 26.0013 11.3335 
26.0257 28.5488 8.62272 
26.014 25.8041 8.58598 
27.377 27.1341 10.0734 
25.9247 25.7378 11.6 
25.9208 28.6276 11.4646 
1.62037 1.52135 12.8127 
3.01055 2.72093 14.2425 
1.49191 1.46867 15.9038 
0.0321248 0.0125154 14.4267 
0.0799141 3.05385 14.5089 
4.37612 1.48866 12.8779 
7.1643 1.40414 12.962 
5.83037 2.92337 14.2768 
4.53576 1.46826 15.6007 
7.09229 1.48727 15.7836 
10.1716 1.41926 12.9007 
8.63648 0.218525 14.2929 
11.6955 0.0699312 14.2336 
9.94803 1.47802 15.849 
11.5303 2.77502 14.4243 
8.55973 2.98586 14.4769 
12.9664 1.49623 12.9441 
15.9112 1.3937 12.7778 
13.0194 1.59223 15.9017 
15.7578 1.46462 15.9271 
14.5983 2.85549 14.3953 
18.5074 1.39951 12.7505 
17.3126 0.132798 14.3312 
20.1515 2.76221 14.3555 
17.2502 2.69913 14.1835 
18.7445 1.70681 15.7001 
21.5522 1.53097 12.9222 
24.4068 1.50853 12.925 
21.6407 1.39764 15.876 
24.4981 1.39638 15.7061 
23.0092 0.102843 14.4469 
23.1694 2.81485 14.5873 
26.1168 2.86252 14.2799 
26.0084 0.148397 14.3114 
27.4255 1.43795 12.8069 
27.3649 1.37486 15.8352 
1.41799 4.41738 12.8476 
1.2905 6.94291 12.9682 
4.04069 7.18985 13.0354 
1.50257 4.16857 15.8857 
1.40054 7.0882 15.7333 
2.89904 5.49305 14.3808 
4.27498 4.27435 12.7839 
7.21692 4.21815 12.9596 
7.23546 6.95487 13.0169 
4.32077 7.02908 15.8095 
7.14533 4.31834 15.8058 
4.38357 4.22292 15.89 
7.07022 7.14293 15.8208 
5.55038 5.66519 14.3634 
10.1339 4.2509 12.9649 
10.1868 7.22897 12.9528 
11.5397 5.83096 14.298 
8.67684 5.58847 14.1486 
10.0369 4.2169 15.9356 
10.2083 7.19182 15.5951 
12.8889 4.23325 12.8366 
15.7981 4.30808 12.9386 
13.167 7.17343 12.986 
15.9038 7.19812 13.0228 
12.8549 4.2196 15.6539 
15.8237 4.3738 16.0003 
12.9412 7.39056 15.8903 
15.5921 7.19947 16.1154 
14.4279 5.68435 14.5454 
18.5729 4.32158 13.0334 
18.7474 7.12801 13.0983 
17.1687 5.73889 14.287 
18.5161 4.26116 15.6191 
18.5422 7.34623 15.7829 
20.1103 5.58336 14.5418 
24.4499 4.35195 13.2032 
21.4673 4.35826 13.0233 
21.6886 7.11412 12.9588 
24.4732 7.12739 13.1792 
21.6671 4.38796 16.0019 
21.6349 7.16635 16.0279 
24.384 7.22974 15.9015 
22.9828 5.69262 14.4269 
27.4635 4.4214 12.9133 
27.3505 7.04117 12.9062 
28.659 5.62714 14.4585 
24.7288 4.2471 15.7795 
27.2575 4.27197 15.9918 
27.3954 7.11322 15.7494 
26.1376 5.57052 14.4219 
1.32631 9.98074 12.9652 
2.85613 11.4361 14.2092 
1.54055 10.1174 15.5847 
2.78257 8.70152 14.4886 
4.1565 9.97551 12.7651 
6.90993 9.92491 12.941 
4.31873 10.1855 15.7156 
7.18808 9.8987 15.6941 
5.83576 11.656 14.3773 
5.53688 8.52767 14.3941 
9.94695 10.0118 12.8967 
11.53 8.71134 14.0647 
11.3767 11.5151 14.3326 
10.0317 9.75967 15.7279 
8.36406 11.2146 14.394 
8.56283 8.57367 14.3865 
13.1827 10.0631 12.9039 
15.7789 10.0409 12.727 
12.8399 10.1294 15.696 
15.5214 10.0737 15.8757 
14.487 8.60084 14.4134 
14.2876 11.7027 14.5162 
18.8508 10.0935 13.0883 
17.245 8.71941 14.3288 
20.1558 8.65963 14.3455 
20.2006 11.5085 14.3522 
18.6961 10.2256 15.6781 
17.0273 11.4301 14.4 
21.4956 9.99383 12.8583 
24.3929 9.95479 12.9115 
22.8808 11.3866 14.2736 
21.602 9.98254 15.92 
24.3772 9.92996 15.8345 
22.8837 8.51456 14.4241 
28.5855 11.4546 14.3512 
28.5527 8.47926 14.3547 
27.1737 10.1401 12.9253 
25.8244 11.4058 14.2149 
27.0719 9.95057 15.7151 
25.8392 8.51268 14.45 
1.22837 12.8977 12.8887 
1.25477 15.6258 12.9932 
2.81121 14.2979 14.2329 
1.44083 12.8425 15.7504 
1.51376 15.705 15.7585 
3.98397 15.7572 15.9795 
4.26268 12.8511 12.9108 
7.09024 12.9312 12.7274 
4.28725 15.7398 12.8531 
7.12703 15.7227 12.8205 
5.63296 14.2368 14.2286 
4.22645 12.9818 15.6761 
7.16368 13.0018 15.7275 
7.04511 15.8305 15.7499 
9.91332 12.8985 12.9272 
9.95704 15.9798 12.9536 
8.53103 14.2312 14.24 
9.79062 12.9698 15.8979 
9.76111 15.7998 15.754 
11.1351 14.3797 14.4347 
12.7229 12.9415 12.9315 
15.8247 12.8236 12.9199 
12.9289 15.874 12.9869 
15.6335 15.7155 13.0343 
14.0042 14.5555 14.2654 
12.7814 13.0496 15.757 
15.7417 13.0143 15.7205 
12.6325 15.745 15.7325 
16.0305 15.7096 15.8108 
18.7126 12.9122 12.9645 
18.9133 15.6961 12.698 
20.2188 14.4375 14.2312 
17.1633 14.4118 14.1132 
18.6967 13.0532 15.7976 
18.8725 15.569 15.8419 
21.4439 12.8906 12.9661 
21.4681 15.8326 12.7352 
24.2581 12.8455 12.894 
24.3724 16.0358 12.9309 
21.554 12.9461 15.7835 
24.4502 12.7215 15.5722 
21.6211 15.8294 15.7261 
24.5688 15.8904 15.993 
23.0174 14.4574 14.3861 
28.5945 14.375 14.3266 
27.2188 12.986 12.8921 
27.2144 15.6947 12.9383 
25.7519 14.336 14.3103 
27.3362 12.9977 15.6384 
27.2019 15.5322 15.6962 
0.0773943 20.1095 14.2643 
1.18024 18.6658 12.9028 
1.3829 18.547 15.6712 
2.83193 19.9541 14.4522 
2.78009 17.1933 14.3792 
4.20145 18.5551 12.9778 
7.29555 18.5738 13.0055 
5.64176 17.226 14.2803 
5.81656 19.9751 14.1801 
4.24487 18.7086 15.8083 
7.22206 18.5937 15.9279 
8.58238 20.3032 14.3457 
10.0299 18.7205 13.0311 
9.7022 18.5467 15.9599 
11.1782 17.2565 14.4831 
8.51279 17.29 14.4172 
11.3272 20.031 14.4046 
12.9561 18.6502 12.875 
15.9014 18.7826 12.7206 
14.1548 19.9942 14.3312 
14.3121 17.1902 14.506 
12.8038 18.7567 15.8428 
20.1264 20.0129 14.349 
18.6411 18.6246 12.7982 
17.6452 16.822 14.135 
20.1814 17.0919 14.235 
16.4449 18.2859 15.0177 
18.724 18.5078 15.6349 
17.0619 20.3856 14.5273 
21.3543 18.5823 12.9644 
24.4977 18.674 12.8849 
21.5278 18.4871 15.7569 
24.4412 18.5769 15.7553 
23.0935 17.1573 14.4259 
22.9898 19.9071 14.4312 
27.0518 18.6424 12.7331 
28.4518 17.1588 14.361 
27.365 18.7161 15.873 
25.9637 17.157 14.406 
25.9902 20.0326 14.4066 
1.57103 21.4971 12.9483 
1.50512 24.2906 12.7837 
2.803 22.9631 14.2293 
1.48632 21.4878 15.915 
1.54716 24.1559 15.7409 
0.0316719 22.8725 14.4799 
4.3659 21.2362 12.7849 
7.20433 21.4018 12.7207 
4.26307 24.2318 12.9157 
7.03512 24.4129 12.6878 
4.29833 21.5028 15.7622 
7.061 21.3174 15.6527 
4.3256 24.1452 15.8136 
7.13677 24.3858 15.6629 
5.78654 22.8791 14.3827 
9.95119 21.5049 12.8857 
10.084 24.2955 12.941 
10.0761 21.5063 15.6632 
9.96281 24.3743 15.6278 
11.4048 22.7786 14.4686 
8.51526 22.8076 14.4477 
15.8162 24.4354 12.7633 
12.9617 21.5213 12.9633 
15.963 21.5278 12.8147 
12.8649 24.4215 12.9311 
14.5254 22.9726 14.1314 
12.6579 21.6577 15.8386 
15.5458 21.7233 15.9882 
15.8124 24.4955 15.8926 
12.924 24.3426 15.7425 
18.731 21.6026 12.9431 
18.6893 24.3966 12.9461 
17.1531 22.9521 14.3276 
20.0681 23.0759 14.3216 
18.8098 21.5288 15.8428 
18.6405 24.6092 15.6687 
21.6752 24.4181 12.9502 
24.3044 24.276 12.8631 
24.1777 21.4686 13.0184 
21.4613 21.4502 12.8905 
21.5785 21.4487 15.5754 
24.4089 21.4893 15.7273 
22.8006 23.0964 14.4329 
27.3416 21.4845 12.886 
27.3961 24.1638 12.8396 
25.9157 22.726 14.3518 
27.3568 21.5885 15.9379 
27.3661 24.2974 15.797 
0.17341 25.6481 14.2964 
1.49466 27.3257 12.945 
2.96293 25.657 14.1976 
2.94361 28.6214 14.3381 
1.46384 27.2861 15.6382 
7.22903 27.3431 13.0411 
4.30498 27.202 12.8436 
5.84824 28.6387 14.361 
4.39918 27.012 15.6766 
7.17124 27.2052 15.637 
5.64828 25.6589 14.3982 
11.3862 25.8021 14.2811 
8.4794 25.7509 14.2402 
10.1521 27.2603 12.8814 
10.1053 27.3693 15.518 
15.7919 27.1578 12.9379 
12.961 27.144 13.0118 
14.3571 28.5395 14.4731 
13.0938 27.2699 15.9803 
15.7722 27.2684 15.8869 
14.4836 25.8201 14.4783 
18.733 27.3331 12.901 
20.2111 25.9036 14.1976 
20.1339 28.67 14.5045 
18.672 27.4568 15.7814 
17.1661 26.0647 14.5699 
24.4665 27.4737 12.9386 
21.4718 27.3942 12.9405 
23.0262 26.1602 14.2928 
21.6427 24.6562 15.8171 
24.3668 24.6379 15.6525 
21.6059 27.3009 15.7181 
24.5689 27.3667 15.7823 
27.4285 27.0816 12.7284 
26.0098 25.7907 14.3184 
27.4014 27.2476 15.6135 
1.56523 1.44525 18.6532 
2.99063 2.79319 17.2984 
0.0674515 2.78538 17.1347 
0.201425 0.107181 17.264 
2.78988 2.84466 20.0427 
0.0376443 2.9296 20.0879 
0.195893 0.0218077 20.0256 
4.31202 1.568 18.6984 
7.19768 1.60505 18.7751 
5.77922 3.07707 17.4515 
5.77264 2.85784 20.3103 
5.53722 0.0022472 20.0985 
9.98992 1.5446 18.7212 
8.31509 3.06935 17.2806 
11.2398 2.67998 17.3766 
8.46278 0.0119665 17.2221 
8.60276 3.1772 20.1922 
11.3986 3.1213 20.1858 
8.38863 0.0211172 20.2506 
11.5096 0.0872409 20.1336 
12.8217 1.47695 18.7952 
15.8447 1.61672 18.7559 
14.3556 2.86843 17.4006 
14.4289 0.0556867 17.3177 
14.3063 2.97923 19.9139 
14.4135 0.033862 19.9192 
18.5974 1.52888 18.7175 
17.2678 2.88729 17.2953 
20.1112 2.8371 17.1767 
17.3014 0.0251607 17.1296 
17.4876 2.88999 20.1729 
20.0348 2.8913 19.9442 
17.3005 0.0397115 19.9842 
20.0347 0.137706 20.0435 
21.5699 1.47086 18.4727 
23.106 2.92495 17.3079 
23.1313 0.0307831 17.299 
23.0252 3.04047 19.9371 
22.8631 0.19439 20.0713 
24.6171 1.3853 18.6905 
27.3664 1.62254 18.7654 
25.9534 2.87881 17.2484 
26.0301 0.0181912 17.0806 
25.8125 2.97934 20.113 
26.0198 0.0875581 20.1203 
1.33344 4.28606 18.695 
1.41216 7.19135 18.6145 
2.85561 5.70102 17.2592 
0.026965 5.74893 17.3041 
2.78016 5.89154 20.2494 
0.0426733 5.70275 20.2025 