ITEM: TIMESTEP
22045
ITEM: NUMBER OF ATOMS
18
ITEM: BOX BOUNDS pp pp pp
0.0000000000000000e+00 2.8712000000000000e+01
0.0000000000000000e+00 2.8712000000000000e+01
0.0000000000000000e+00 2.8712000000000000e+01
ITEM: ATOMS x y z c_cna 
14.3568 20.0961 14.3922 5 
12.7707 18.5101 15.3887 5 
15.7555 18.6972 15.8039 5 
12.9581 21.4949 15.8039 5 
15.943 21.6821 15.3887 5 
11.5366 17.2757 17.2263 5 
11.3827 20.0915 17.2263 5 
12.7708 18.51 19.0639 5 
14.3522 17.1215 17.2263 5 
15.7555 18.6972 18.6486 5 
13.6081 19.3466 17.2262 5 
14.3569 20.0961 20.0604 5 
17.3309 20.1007 17.2263 5 
15.1055 20.8456 17.2263 5 
12.9582 21.495 18.6486 5 
14.3614 23.0708 17.2262 5 
15.943 21.6821 19.064 5 
17.1771 22.9164 17.2263 5 
ITEM: TIMESTEP
22046
ITEM: NUMBER OF ATOMS
18
ITEM: BOX BOUNDS pp pp pp
0.0000000000000000e+00 2.8712000000000000e+01
0.0000000000000000e+00 2.8712000000000000e+01
0.0000000000000000e+00 2.8712000000000000e+01
ITEM: ATOMS x y z c_cna 
14.3568 20.0961 14.3922 5 
12.7707 18.5101 15.3887 5 
15.7555 18.6972 15.8039 5 
12.9581 21.4949 15.8039 5 
15.943 21.6821 15.3887 5 
11.5366 17.2757 17.2263 5 
11.3827 20.0915 17.2263 5 
12.7708 18.51 19.0639 5 
14.3522 17.1215 17.2263 5 
15.7555 18.6972 18.6486 5 
13.6081 19.3466 17.2262 5 
14.3569 20.0961 20.0604 5 
17.3309 20.1007 17.2263 5 
15.1055 20.8456 17.2263 5 
12.9582 21.495 18.6486 5 
14.3614 23.0708 17.2262 5 
15.943 21.6821 19.064 5 
17.1771 22.9164 17.2263 5 
