ITEM: TIMESTEP
22045
ITEM: NUMBER OF ATOMS
2001
ITEM: BOX BOUNDS pp pp pp
0.0000000000000000e+00 2.8712000000000000e+01
0.0000000000000000e+00 2.8712000000000000e+01
0.0000000000000000e+00 2.8712000000000000e+01
ITEM: ATOMS x y z c_cna 
1.43635 1.43438 1.43459 3 
2.87119 2.86928 2.87012 3 
0.00141625 2.87 2.87017 3 
4.30638 1.43397 1.43468 3 
7.17707 1.43402 1.43501 3 
5.74154 2.86908 2.87014 3 
10.0485 1.43439 1.43541 3 
8.61266 2.86925 2.87024 3 
11.4844 2.86967 2.87036 3 
11.4844 2.86993 0.000342565 3 
12.9204 1.43486 1.43571 3 
15.7927 1.43541 1.43586 3 
14.3565 2.8702 2.87039 3 
14.3564 2.87052 0.000645246 3 
14.3565 0.000231105 0.00148025 3 
18.6651 1.43593 1.43593 3 
17.2287 2.87075 2.87036 3 
20.101 2.87117 2.87034 3 
20.1013 0.000389192 2.87041 3 
17.2288 2.87111 0.00081803 3 
20.1011 2.87159 0.000793585 3 
17.2291 0.00083929 0.00180902 3 
20.1019 0.00135523 0.00195256 3 
21.5373 1.43622 1.43583 3 
24.4087 1.43594 1.43548 3 
22.9728 2.87126 2.87027 3 
22.9733 0.000380225 2.87028 3 
22.974 0.0012752 0.0015874 3 
22.973 2.87169 0.000457828 3 
27.2789 1.43512 1.43491 3 
25.8436 2.87084 2.87019 3 
25.8443 0.000195617 0.000329719 3 
1.436 4.30465 1.43448 3 
1.43531 7.17454 1.43454 3 
2.87067 5.73925 2.8701 3 
0.000788713 5.74009 2.87016 3 
4.30611 4.3041 1.43459 3 
7.17699 4.30409 1.43486 3 
4.30555 7.17382 1.43481 3 
7.17675 7.17362 1.43508 3 
5.74126 5.73887 2.87014 3 
10.0485 4.30437 1.43515 3 
10.0485 7.17388 1.43532 3 
8.6126 5.73895 2.87023 3 
11.4845 5.73935 2.87033 3 
12.9205 4.30488 1.43534 3 
15.7926 4.30545 1.43539 3 
12.9206 7.17433 1.43539 3 
15.7927 7.17488 1.43534 3 
14.3566 5.73988 2.87038 3 
14.3566 5.73986 6.89328e-05 3 
18.6648 4.30598 1.43536 3 
18.6647 7.17542 1.4352 3 
17.2288 5.74046 2.87033 3 
20.1007 5.74091 2.8703 3 
17.2287 5.74043 5.11481e-05 3 
21.5367 4.30628 1.43522 3 
21.5364 7.17582 1.43496 3 
22.9722 5.74111 2.87023 3 
24.4073 7.17592 1.43466 3 
24.408 4.30621 1.43497 3 
27.2783 4.30558 1.43464 3 
27.2775 7.17547 1.43451 3 
25.8428 5.74089 2.87019 3 
1.43472 10.045 1.43477 3 
2.87 8.60927 2.87007 3 
2.8696 11.4802 2.87004 3 
2.86925 11.4799 0.000170072 3 
0.000138495 8.61012 2.87008 3 
4.30487 10.0441 1.43524 3 
7.17623 10.0438 1.43562 3 
5.74077 8.60876 2.87008 3 
5.74032 11.4797 2.87007 3 
5.74056 8.60833 0.000266655 3 
5.73962 11.4788 0.0013406 3 
10.0484 10.044 1.43579 3 
8.61242 8.60878 2.8702 3 
11.4846 8.60913 2.87034 3 
8.61214 11.4796 2.87018 3 
11.4844 11.4799 2.87032 3 
8.61171 11.4787 0.00178596 3 
8.61238 8.60833 0.000642285 3 
11.4844 11.479 0.00169346 3 
11.4846 8.60869 0.000745104 3 
12.9207 10.0444 1.43581 3 
15.7929 10.0449 1.43569 3 
14.3568 8.60961 2.87039 3 
14.3567 11.4804 2.87039 3 
14.3568 8.60923 0.000632388 3 
14.3569 11.4796 0.00144358 3 
18.6648 10.0454 1.43543 3 
17.2288 8.61015 2.87033 3 
20.1006 8.61059 2.87027 3 
17.2288 11.4807 2.87034 3 
20.1005 11.4811 2.87029 3 
20.1007 11.4807 0.000513372 3 
17.2289 8.6098 0.000379544 3 
17.2291 11.4802 0.00109389 3 
21.5363 10.0458 1.43509 3 
24.407 10.046 1.43472 3 
22.9718 8.61087 2.87021 3 
22.9717 11.4813 2.87023 3 
28.7119 11.4808 2.87009 3 
27.2771 10.0457 1.43456 3 
25.8422 8.61076 2.87013 3 
25.8421 11.4812 2.87015 3 
1.43462 12.9162 1.43495 3 
1.43483 15.7881 1.43504 3 
2.86965 14.352 2.87008 3 
2.50702e-05 14.3522 2.87011 3 
2.86929 14.3518 0.000416677 3 
4.30461 12.9156 1.43552 3 
4.30482 15.7879 1.43556 3 
7.17586 12.9152 1.43592 3 
7.17604 15.7876 1.43587 3 
5.74032 14.3517 2.87009 3 
5.73946 14.3511 0.00162888 3 
10.0481 12.9153 1.43601 3 
10.0481 15.7875 1.43583 3 
8.61207 14.3515 2.87021 3 
11.4843 14.3517 2.87033 3 
11.4841 14.3509 0.00169296 3 
8.61127 14.3506 0.00201299 3 
12.9205 12.9157 1.43596 3 
15.7927 12.9162 1.43585 3 
12.9204 15.7878 1.43568 3 
15.7925 15.7881 1.43569 3 
14.3565 14.3521 2.87038 3 
14.3567 14.3514 0.00143906 3 
17.2289 14.3518 0.0013005 3 
18.6647 12.9165 1.43567 3 
18.6645 15.7882 1.43571 3 
17.2285 14.3523 2.87035 3 
20.1003 14.3524 2.8703 3 
20.1006 14.3521 0.000925792 3 
21.5361 12.9167 1.43534 3 
24.4071 12.9166 1.43501 3 
21.5363 15.788 1.43559 3 
22.9718 14.3523 2.87024 3 
24.4075 15.7878 1.43527 3 
22.9721 14.3519 0.000408648 3 
27.2772 12.9165 1.43478 3 
27.2775 15.788 1.43494 3 
25.8424 14.3522 2.87019 3 
1.4352 18.6601 1.43506 3 
2.86997 17.2241 2.87012 3 
2.87035 20.0962 2.87012 3 
0.000331566 17.224 2.87014 3 
2.86964 17.2241 0.00040836 3 
0.000710217 20.096 2.87016 3 
2.87008 20.0962 0.000249357 3 
4.30524 18.6602 1.4355 3 
7.17647 18.66 1.43573 3 
5.74066 17.2239 2.87015 3 
5.74105 20.0961 2.87014 3 
5.73989 17.2238 0.00140877 3 
5.74042 20.0963 0.00108837 3 
11.4845 20.0958 0.000718354 3 
10.0485 18.6598 1.43558 3 
8.61235 17.2238 2.87024 3 
11.4844 17.2238 2.87036 3 
8.61272 20.0959 2.87025 3 
11.4848 20.0958 2.87031 3 
8.61219 20.0961 0.00121526 3 
8.61164 17.2234 0.00152893 3 
11.484 17.2233 0.000964296 3 
12.9206 18.6599 1.43537 3 
15.7926 18.6602 1.43545 3 
14.3565 17.2241 2.87036 3 
14.3567 20.096 2.87032 3 
14.3568 20.096 0.000423633 3 
14.3565 17.2237 0.000750261 3 
20.1009 17.2237 0.00120034 3 
20.1014 20.0959 0.0013002 3 
18.6647 18.6601 1.43564 3 
17.2284 17.2243 2.87036 3 
20.1004 17.2241 2.87033 3 
17.2288 20.0962 2.87035 3 
20.1008 20.096 2.87031 3 
17.2287 17.2241 0.00101394 3 
17.2291 20.0963 0.00074264 3 
22.9731 20.0956 0.00124424 3 
21.5367 18.6598 1.43572 3 
24.4079 18.6596 1.43546 3 
22.9721 17.2238 2.87026 3 
22.9725 20.0958 2.87024 3 
22.9726 17.2235 0.000892164 3 
25.8434 20.0957 0.000319348 3 
27.2778 18.6598 1.43505 3 
25.8427 17.2238 2.87019 3 
25.8431 20.0958 2.87018 3 
25.843 17.2237 5.32059e-05 3 
1.43561 21.5321 1.43501 3 
1.43601 24.404 1.43492 3 
2.87074 22.9681 2.8701 3 
2.87051 22.9682 2.24632e-06 3 
0.00112347 22.968 2.87015 3 
4.30601 24.404 1.43521 3 
4.30563 21.5322 1.43536 3 
7.17684 21.5321 1.4356 3 
5.74135 22.968 2.87017 3 
7.17707 24.4039 1.43549 3 
5.74087 22.9684 0.000768476 3 
10.0488 21.5318 1.43557 3 
8.61297 22.9678 2.87025 3 
11.485 22.9677 2.87032 3 
10.0489 24.4037 1.43564 3 
8.61257 22.9682 0.00109011 3 
11.4849 22.9679 0.000974879 3 
12.921 21.5319 1.43542 3 
15.793 21.5322 1.4354 3 
14.3571 22.9679 2.87037 3 
12.921 24.4038 1.43566 3 
15.7932 24.4042 1.43571 3 
14.3572 22.9683 0.000765026 3 
18.6652 21.5322 1.43566 3 
18.6655 24.4045 1.4359 3 
17.2291 22.9682 2.87036 3 
20.1012 22.9683 2.87033 3 
20.102 22.9686 0.00160867 3 
17.2296 22.9687 0.000989358 3 
21.5371 21.532 1.43584 3 
24.4083 21.5318 1.43558 3 
21.5376 24.4045 1.43602 3 
22.9729 22.968 2.87024 3 
24.4087 24.4042 1.43569 3 
22.9737 22.9682 0.00154981 3 
27.2783 21.5319 1.43509 3 
25.8435 22.9679 2.87016 3 
27.2787 24.404 1.43509 3 
25.8439 22.968 0.000477453 3 
0.00163747 28.7112 2.87018 3 
2.87126 28.7108 2.87013 3 
1.43629 27.2754 1.43477 3 
2.87108 25.8397 2.87015 3 
0.00147717 25.8398 2.87017 3 
5.74169 28.7106 2.87017 3 
4.30628 27.2753 1.43497 3 
7.17721 27.2752 1.43524 3 
5.7416 25.8396 2.87017 3 
5.74131 25.8399 0.000316438 3 
8.61279 28.7107 2.87025 3 
11.4845 28.711 2.87035 3 
8.61281 25.8398 0.000806759 3 
10.0487 27.2754 1.43563 3 
8.61302 25.8394 2.87023 3 
11.4848 25.8395 2.87034 3 
8.6126 28.7111 0.000443193 3 
11.4846 25.8401 0.00123964 3 
11.4843 28.7116 0.00107548 3 
14.3566 28.7115 2.87043 3 
12.9206 27.2757 1.43585 3 
15.7929 27.2762 1.43604 3 
14.3569 25.8398 2.8704 3 
14.3569 25.8405 0.00144785 3 
17.229 28.712 2.87043 3 
20.1024 25.8415 0.0021437 3 
18.6654 27.2767 1.43619 3 
17.2292 25.8403 2.87041 3 
20.1015 25.8406 2.87038 3 
17.2296 25.8412 0.0017586 3 
21.5377 27.2768 1.43616 3 
22.9732 25.8404 2.87029 3 
24.4089 27.2764 1.43572 3 
22.9741 25.841 0.0018091 3 
25.844 28.7118 2.87023 3 
27.2789 27.2758 1.43507 3 
25.8439 25.84 2.87019 3 
25.8443 25.8403 0.000549864 3 
1.43641 1.4344 4.30572 3 
1.4364 1.43429 7.17707 3 
2.87124 2.86926 5.74146 3 
0.00141629 2.86999 5.74135 3 
4.30637 1.43401 4.30562 3 
7.177 1.43406 4.30538 3 
4.30645 1.43397 7.17686 3 
7.1768 1.43437 7.17603 3 
5.74152 2.86917 5.7411 3 
10.0484 1.43441 4.30519 3 
10.048 1.4351 7.17517 3 
8.61253 2.86949 5.74066 3 
11.4842 2.87 5.7403 3 
12.9203 1.43485 4.30507 3 
15.7926 1.43541 4.30494 3 
12.92 1.43579 7.17455 3 
15.7925 1.43653 7.17409 3 
14.3564 2.87057 5.74005 3 
14.3564 0.000208525 5.73929 3 
18.6651 1.43597 4.30484 3 
18.6655 1.43724 7.17379 3 
17.2287 2.87118 5.73989 3 
20.1012 2.87164 5.73985 3 
17.2291 0.000872095 5.73898 3 
20.1019 0.00138 5.73876 3 
21.5373 1.4362 4.30483 3 
24.4087 1.43593 4.30501 3 
21.5383 1.43755 7.17388 3 
24.4096 1.43684 7.1749 3 
22.9731 2.87171 5.7401 3 
22.9741 0.0012311 5.73902 3 
27.2788 1.43514 4.30545 3 
27.2789 1.43526 7.17648 3 
25.8438 2.87107 5.7407 3 
25.8443 0.000186471 5.7401 3 
1.43605 4.30466 4.30581 3 
1.4353 7.17459 4.30565 3 
1.43606 4.30462 7.17729 3 
1.43529 7.17467 7.17707 3 
2.87068 5.73925 5.74133 3 
0.000776022 5.74011 5.74152 3 
7.17693 4.3041 4.30553 3 
4.30609 4.30411 4.3057 3 
4.30553 7.17387 4.30537 3 
7.17665 7.17367 4.30525 3 
4.30538 7.17377 7.1764 3 
4.30622 4.30409 7.17703 3 
7.177 4.30419 7.17657 3 
5.74122 5.73887 5.74098 3 
7.17651 7.17353 7.17587 3 
10.0484 4.30442 4.30546 3 
10.0484 7.17389 4.30524 3 
10.0485 4.30456 7.17617 3 
8.61256 5.739 5.74076 3 
10.0484 7.17377 7.17567 3 
11.4845 5.73941 5.74065 3 
12.9206 7.17435 4.30531 3 
15.7926 4.30547 4.3053 3 
12.9204 4.30493 4.3054 3 
15.7928 7.1749 4.30536 3 
12.9204 4.30508 7.1759 3 
15.7926 4.30564 7.17575 3 
12.9207 7.17424 7.17571 3 
14.3566 5.73992 5.74061 3 
15.7928 7.17478 7.17587 3 
18.6648 4.30599 4.30528 3 
18.6648 7.17543 4.30543 3 
18.6648 4.30617 7.1757 3 
17.2288 5.74044 5.74061 3 
18.6648 7.1753 7.17613 3 
20.1007 5.74092 5.74076 3 
21.5368 4.30631 4.30532 3 
24.408 4.30625 4.30547 3 
21.5364 7.17584 4.30556 3 
24.4073 7.17596 4.30571 3 
21.5369 4.30654 7.1759 3 
21.5363 7.1758 7.17657 3 
22.9722 5.74118 5.74101 3 
24.4072 7.17604 7.17704 3 
24.4081 4.30643 7.17644 3 
27.2783 4.3056 4.30571 3 
27.2775 7.17552 4.30582 3 
27.2782 4.30559 7.17708 3 
25.8428 5.74093 5.74135 3 
27.2774 7.17562 7.1773 3 
1.43472 10.045 4.30534 3 
1.4345 10.0449 7.17644 3 
2.86975 8.60911 5.74063 3 
2.86915 11.4799 5.74 3 
7.84849e-05 8.61018 5.74132 3 
4.3048 10.0442 4.30484 3 
7.17613 10.0438 4.30465 3 
4.30392 10.0433 7.17481 3 
5.7404 8.60843 5.74 3 
7.17515 10.0426 7.17381 3 
5.73943 11.4789 5.73889 3 
10.0483 10.044 4.30473 3 
8.61218 8.60836 5.73978 3 
10.0478 10.0428 7.17373 3 
11.4845 8.60874 5.73985 3 
8.6115 11.4787 5.73864 3 
11.4842 11.4791 5.73888 3 
12.9207 10.0444 4.30492 3 
15.7929 10.0449 4.30506 3 
12.9207 10.0434 7.17405 3 
14.3569 8.60927 5.74004 3 
15.7933 10.0441 7.17454 3 
14.3569 11.4797 5.73923 3 
18.6649 10.0454 4.3052 3 
17.229 8.60986 5.74029 3 
18.6653 10.0448 7.17517 3 
20.1008 8.6104 5.74066 3 
17.2292 11.4802 5.73957 3 
20.1009 11.4808 5.74009 3 
21.5363 10.0458 4.30544 3 
24.407 10.046 4.30565 3 
21.5365 10.0456 7.17608 3 
22.9718 8.61085 5.74113 3 
22.9718 11.4812 5.74075 3 
24.4069 10.0461 7.1769 3 
27.2771 10.0457 4.30567 3 
28.7118 11.4808 5.74098 3 
25.8422 8.61085 5.74146 3 
27.277 10.0458 7.17704 3 
25.8422 11.4812 5.74112 3 
1.43461 12.9162 4.30519 3 
1.43484 15.7881 4.30516 3 
1.43434 12.9161 7.17597 3 
1.43463 15.788 7.17584 3 
2.86917 14.3518 5.73983 3 
4.30454 12.9157 4.30463 3 
4.30476 15.7878 4.30466 3 
7.17577 12.9152 4.30435 3 
7.17595 15.7875 4.30448 3 
4.30322 12.9147 7.17386 3 
7.1736 12.9131 7.17204 3 
4.30349 15.7874 7.17382 3 
5.73929 14.3511 5.73866 3 
7.17374 15.7864 7.17221 3 
10.048 12.9153 4.30451 3 
10.048 15.7875 4.30477 3 
10.0468 12.9132 7.17218 3 
8.61107 14.3506 5.73841 3 
10.0463 15.7858 7.17254 3 
11.4839 14.3509 5.73895 3 
15.7927 12.9161 4.30488 3 
15.7925 15.7881 4.30503 3 
12.9205 12.9157 4.30475 3 
12.9203 15.7878 4.30504 3 
12.9204 12.914 7.17286 3 
15.7934 12.9148 7.17342 3 
12.9199 15.7865 7.17356 3 
14.3566 14.3514 5.73928 3 
15.7929 15.7871 7.17373 3 
18.6647 12.9164 4.30497 3 
18.6645 15.7882 4.30496 3 
18.6655 12.9155 7.17412 3 
17.2289 14.3518 5.73938 3 
18.6651 15.7877 7.17388 3 
20.1007 14.3521 5.73967 3 
21.5362 12.9167 4.30518 3 
21.5363 15.788 4.30496 3 
24.4071 12.9166 4.3054 3 
24.4075 15.7879 4.30518 3 
21.5365 12.9164 7.17528 3 
24.4074 12.9165 7.17608 3 
21.5373 15.7872 7.17416 3 
22.9721 14.352 5.74009 3 
24.4081 15.7875 7.17523 3 
27.2771 12.9165 4.30551 3 
27.2775 15.788 4.30539 3 
28.712 14.3522 5.74077 3 
27.2772 12.9166 7.17662 3 
25.8425 14.3521 5.74069 3 
27.2775 15.788 7.17628 3 
1.43518 18.6601 4.3052 3 
1.43503 18.6601 7.17587 3 
2.86952 17.224 5.73988 3 
2.86995 20.0963 5.74003 3 
0.000731565 20.096 5.74064 3 
0.000318806 17.224 5.74065 3 
4.30515 18.6601 4.30478 3 
7.17637 18.66 4.30467 3 
4.30402 18.6602 7.17414 3 
5.73971 17.2238 5.73889 3 
7.17452 18.66 7.1729 3 
5.74023 20.0963 5.73921 3 
10.0484 18.6598 4.30498 3 
8.61143 17.2234 5.73892 3 
10.047 18.6595 7.17358 3 
11.4839 17.2234 5.73967 3 
8.61199 20.0961 5.73926 3 
11.4844 20.0958 5.73996 3 
12.9205 18.6599 4.30531 3 
15.7926 18.6602 4.30525 3 
12.92 18.6594 7.17482 3 
14.3564 17.2238 5.73995 3 
15.7927 18.66 7.1746 3 
14.3568 20.096 5.74033 3 
18.6647 18.6601 4.30499 3 
17.2286 17.2241 5.73964 3 
18.6656 18.6597 7.17374 3 
20.1009 17.2237 5.73938 3 
17.2291 20.0962 5.73992 3 
20.1014 20.0959 5.73925 3 
21.5367 18.6598 4.30483 3 
24.4079 18.6597 4.30498 3 
21.538 18.6591 7.17348 3 
22.9726 17.2235 5.7396 3 
24.4087 18.6593 7.17465 3 
22.9732 20.0956 5.73926 3 
27.2778 18.6599 4.30528 3 
25.843 17.2237 5.74034 3 
27.278 18.6599 7.17602 3 
25.8435 20.0957 5.74009 3 
1.43559 21.5321 4.30524 3 
1.43598 24.404 4.30538 3 
1.43545 21.5322 7.17604 3 
2.8704 22.9683 5.7403 3 
1.43583 24.4039 7.17627 3 
0.00110589 22.968 5.74068 3 
4.30555 21.5323 4.30491 3 
7.17674 21.5321 4.30479 3 
7.177 24.4039 4.30489 3 
4.30594 24.404 4.3051 3 
4.30463 21.5327 7.17463 3 
7.17527 21.5328 7.17346 3 
4.30528 24.4045 7.17521 3 
5.74073 22.9684 5.73955 3 
7.17602 24.4048 7.17412 3 
10.0488 21.5318 4.30499 3 
10.0489 24.4036 4.30496 3 
10.0477 21.5323 7.17379 3 
8.61239 22.9681 5.73937 3 
10.0482 24.4042 7.17393 3 
11.4848 22.9679 5.73969 3 
12.9209 21.5318 4.30526 3 
15.793 21.5321 4.3053 3 
15.7931 24.4042 4.30506 3 
12.9207 21.532 7.17463 3 
15.7935 21.5327 7.17484 3 
14.3571 22.9682 5.74 3 
15.7935 24.4056 7.1736 3 
12.9204 24.4048 7.1738 3 
12.9209 24.4038 4.30508 3 
18.6651 21.5322 4.305 3 
18.6655 24.4046 4.30483 3 
18.6664 21.5326 7.17359 3 
17.2296 22.9687 5.73967 3 
20.102 22.9686 5.73897 3 
18.6672 24.4063 7.17258 3 
21.5371 21.532 4.30472 3 
24.4083 21.5318 4.30484 3 
21.5376 24.4045 4.3046 3 
24.4088 24.4042 4.30477 3 
21.5389 21.532 7.17293 3 
21.5398 24.4056 7.17226 3 
22.9738 22.9682 5.73897 3 
24.4094 21.5318 7.17421 3 
24.41 24.4046 7.17391 3 
27.2783 21.5319 4.30522 3 
27.2787 24.4039 4.30524 3 
27.2784 21.5319 7.17592 3 
25.8439 22.968 5.73993 3 
27.2788 24.404 7.1759 3 
2.8712 28.7109 5.74113 3 
0.00163837 28.7113 5.74103 3 
1.4363 27.2755 4.30556 3 
1.43622 27.2754 7.17664 3 
2.87083 25.8399 5.74066 3 
0.00144219 25.8398 5.74081 3 
5.74159 28.7108 5.74072 3 
4.30622 27.2753 4.30538 3 
7.17714 27.2752 4.30513 3 
4.30596 27.2756 7.17603 3 
5.7412 25.84 5.74002 3 
7.1768 27.2756 7.17525 3 
10.0486 27.2753 4.30496 3 
11.4841 28.7116 5.73962 3 
8.61245 28.7111 5.74004 3 
8.61264 25.8398 5.73965 3 
10.0477 27.2763 7.17415 3 
11.4844 25.84 5.73942 3 
12.9206 27.2757 4.30491 3 
15.7929 27.2762 4.30481 3 
12.9198 27.2771 7.1735 3 
14.3568 25.8405 5.73933 3 
15.7929 27.278 7.17292 3 
18.6654 27.2767 4.30465 3 
17.2295 25.8411 5.73899 3 
18.6666 27.2789 7.17224 3 
20.1024 25.8415 5.73852 3 
21.5378 27.2769 4.30452 3 
24.409 27.2764 4.30479 3 
21.5399 27.279 7.17213 3 
22.9742 25.841 5.73878 3 
24.4103 27.2774 7.17396 3 
27.2789 27.2758 4.30529 3 
25.8443 25.8402 5.73993 3 
27.2791 27.2759 7.17603 3 
2.87141 2.86911 8.613 3 
1.43651 1.43395 10.0487 3 
2.87175 2.86884 11.4845 3 
0.00136431 2.8696 11.4844 3 
0.00140096 2.86984 8.6129 3 
5.74179 2.8691 8.61253 3 
4.30685 1.43361 10.0485 3 
7.17722 1.43414 10.0477 3 
5.74243 2.86878 11.4842 3 
8.61263 2.8696 8.61179 3 
11.4842 2.87018 8.61112 3 
11.4831 0.00115857 8.60886 3 
10.048 1.4351 10.0465 3 
8.6134 2.86913 11.4837 3 
11.4848 2.86951 11.483 3 
11.4832 0.000867552 11.4806 3 
14.3563 2.8708 8.61066 3 
14.3559 0.00222433 8.60787 3 
14.3562 0.00205114 11.4791 3 
12.9199 1.4359 10.0455 3 
15.7928 1.43676 10.0447 3 
14.3567 2.86998 11.4824 3 
17.2289 2.87147 8.61035 3 
20.1015 2.87209 8.6103 3 
20.1039 0.00421292 8.60661 3 
17.2296 0.00333278 8.60704 3 
20.106 0.00516024 11.4777 3 
18.6663 1.43779 10.0443 3 
17.2291 2.87073 11.482 3 
20.1015 2.87161 11.4821 3 
17.231 0.00361016 11.4777 3 
22.9735 2.87213 8.6109 3 
22.9754 0.00276543 11.4815 3 
21.5393 1.43829 10.0447 3 
24.4094 1.43671 10.0469 3 
22.9728 2.87161 11.4832 3 
22.9763 0.00348476 8.60783 3 
25.8437 2.87105 8.61218 3 
25.8441 0.000108706 11.4833 3 
27.2788 1.43495 10.0482 3 
25.8433 2.87077 11.4839 3 
25.8447 0.000640089 8.61101 3 
2.87084 5.7393 8.61285 3 
1.4362 4.30453 10.0488 3 
1.43545 7.17478 10.0486 3 
2.87117 5.7393 11.4844 3 
0.000740315 5.74015 8.61309 3 
0.000710798 5.74013 11.4845 3 
5.74144 5.73889 8.61235 3 
4.30661 4.30402 10.0486 3 
4.30576 7.17394 10.0481 3 
7.17751 4.30412 10.0481 3 
7.17674 7.17364 10.0473 3 
5.74204 5.739 11.484 3 
8.61279 5.73906 8.61192 3 
11.4846 5.73947 8.6117 3 
10.0489 4.30445 10.0477 3 
10.0486 7.17401 10.047 3 
8.61336 5.73916 11.4836 3 
11.4849 5.73955 11.4833 3 
14.3566 5.73995 8.61163 3 
15.7926 4.3054 10.0471 3 
12.9206 4.30489 10.0473 3 
12.9206 7.17451 10.0471 3 
15.7926 7.17501 10.0473 3 
14.3566 5.73995 11.4832 3 
17.2287 5.74044 8.61168 3 
20.1005 5.74093 8.61192 3 
18.6647 4.30599 10.047 3 
18.6644 7.17546 10.0476 3 
17.2283 5.74039 11.4832 3 
20.0999 5.74087 11.4835 3 
22.9719 5.74124 8.61237 3 
21.5366 4.30646 10.0474 3 
21.5358 7.17594 10.0481 3 
22.9713 5.74114 11.484 3 
24.4067 7.17615 10.0486 3 
24.4077 4.30625 10.0481 3 
25.8426 5.74096 8.61289 3 
27.278 4.30547 10.0487 3 
27.2772 7.17574 10.0488 3 
25.8422 5.74094 11.4843 3 
2.86979 8.60919 8.61218 3 
2.86875 11.4795 8.61097 3 
1.4347 10.0452 10.0482 3 
2.87018 8.60947 11.4839 3 
2.86941 11.48 11.4833 3 
5.26122e-05 8.61062 11.4844 3 
4.74014e-05 8.61037 8.61293 3 
5.73999 8.60805 8.61087 3 
5.73723 11.4767 8.60779 3 
4.30416 10.0435 10.0469 3 
7.17417 10.0419 10.0447 3 
5.7407 8.60859 11.4832 3 
5.73814 11.4774 11.4815 3 
8.61185 8.60797 8.61029 3 
11.4844 8.60849 8.61033 3 
8.60958 11.4759 8.60655 3 
11.4837 11.4767 8.60699 3 
10.0471 10.0423 10.0442 3 
8.61193 8.6085 11.4821 3 
11.4843 8.60928 11.482 3 
8.60746 11.4751 11.4777 3 
11.4824 11.4765 11.4777 3 
14.3569 8.60909 8.61067 3 
14.3574 11.4777 8.60781 3 
12.9205 10.0432 10.0448 3 
15.7933 10.044 10.0455 3 
14.3566 8.60995 11.4824 3 
14.3571 11.478 11.4791 3 
17.229 8.60968 8.61112 3 
20.1006 8.61033 8.61179 3 
17.2301 11.4787 8.60883 3 
20.1015 11.48 8.61025 3 
18.6652 10.0449 10.0465 3 
17.2284 8.61042 11.483 3 
20.0998 8.61085 11.4836 3 
17.23 11.4791 11.4806 3 
20.1008 11.4807 11.4825 3 
22.9715 8.61096 8.61255 3 
22.9716 11.4813 8.61189 3 
21.536 10.0459 10.0477 3 
22.9708 8.61133 11.4842 3 
22.9708 11.482 11.4838 3 
24.4064 10.0465 10.0485 3 
28.7118 11.481 8.61247 3 
25.842 8.61105 8.61302 3 
25.842 11.4814 8.6126 3 
28.7118 11.4815 11.4841 3 
27.2768 10.0462 10.0487 3 
25.8416 8.61135 11.4845 3 
25.8416 11.482 11.4843 3 
2.86876 14.3514 8.6105 3 
1.43447 12.9162 10.0476 3 
1.43482 15.7881 10.0473 3 
2.86932 14.3514 11.4824 3 
1.55947e-05 14.3528 11.4838 3 
5.73652 14.3491 8.60665 3 
4.30259 12.9136 10.0448 3 
7.16854 12.908 10.0384 3 
4.303 15.7866 10.0445 3 
7.16843 15.7833 10.0377 3 
5.73571 14.3469 11.4778 3 
8.60711 14.3466 8.60412 3 
11.4825 14.3474 8.60535 3 
10.0437 12.9079 10.0376 3 
10.0398 15.7793 10.035 3 
8.59494 14.3344 11.4638 3 
11.4785 14.3372 11.4656 3 
14.3573 14.3488 8.60658 3 
12.9205 12.9098 10.0392 3 
15.7953 12.9115 10.041 3 
12.919 15.7818 10.0384 3 
15.7953 15.7839 10.0399 3 
14.3603 14.3412 11.4698 3 
17.2304 14.35 8.60745 3 
20.1012 14.3515 8.6093 3 
18.6673 12.9137 10.0433 3 
18.6656 15.787 10.0428 3 
17.235 14.3454 11.474 3 
20.1007 14.352 11.481 3 
22.9728 14.3513 8.61031 3 
21.5363 12.9165 10.0465 3 
21.539 15.7853 10.0434 3 
22.9721 14.3518 11.4826 3 
24.407 12.9168 10.0478 3 
24.408 15.7875 10.0467 3 
28.7119 14.3523 8.61211 3 
25.8425 14.3522 8.61189 3 
27.277 12.9171 10.0483 3 
27.2773 15.7884 10.0479 3 
25.842 14.3528 11.4839 3 
2.86923 17.2239 8.61056 3 
2.86976 20.0963 8.61087 3 
0.000691521 20.096 8.61189 3 
0.000328253 17.2241 8.61193 3 
1.43527 18.6601 10.0474 3 
2.87004 17.2238 11.4823 3 
2.87062 20.0961 11.4827 3 
0.000671457 20.096 11.4836 3 
0.000353406 17.2243 11.4837 3 
5.73731 17.2233 8.6071 3 
5.73827 20.0969 8.60796 3 
4.30388 18.66 10.045 3 
7.17037 18.6601 10.0394 3 
5.73718 17.222 11.4779 3 
5.73864 20.0967 11.4793 3 
8.60794 17.2221 8.6054 3 
11.4816 17.2212 8.60712 3 
8.60933 20.0968 8.60668 3 
11.4829 20.0959 8.60834 3 
10.0424 18.6586 10.0385 3 
8.59778 17.2181 11.4657 3 
11.4718 17.2112 11.4664 3 
8.60187 20.0999 11.47 3 
11.4766 20.0985 11.472 3 
14.3564 17.2223 8.60827 3 
14.3568 20.096 8.60957 3 
12.9179 18.6573 10.0417 3 
15.7927 18.66 10.0424 3 
14.359 17.2159 11.4719 3 
14.3568 20.0961 11.4787 3 
17.2292 17.2235 8.60798 3 
20.1027 17.2222 8.60752 3 
17.2305 20.0962 8.60834 3 
20.104 20.0953 8.60668 3 
18.6688 18.6573 10.0399 3 
17.2286 17.2241 11.476 3 
20.1073 17.2176 11.4741 3 
17.2369 20.0936 11.472 3 
20.1116 20.0922 11.47 3 
22.9741 17.2225 8.60895 3 
22.9751 20.0951 8.60801 3 
21.5413 18.6572 10.0411 3 
22.9736 17.2225 11.4809 3 
22.9747 20.0954 11.4794 3 
24.4087 18.6592 10.0458 3 
25.8431 17.2237 8.61132 3 
25.8436 20.0956 8.6109 3 
27.2777 18.66 10.0476 3 
25.8424 17.2241 11.4833 3 
25.8428 20.0959 11.4828 3 
2.87025 22.9684 8.61132 3 
0.000965361 22.9676 11.4836 3 
1.43597 24.4037 10.0479 3 
1.43563 21.532 10.0476 3 
2.87097 22.9678 11.4833 3 
0.00104852 22.9679 8.61197 3 
5.73924 22.9695 8.60893 3 
4.30534 24.4046 10.0467 3 
7.17425 24.4067 10.0434 3 
4.30461 21.5328 10.0457 3 
7.17208 21.5348 10.0411 3 
5.73968 22.9695 11.4809 3 
8.61054 22.9698 8.60753 3 
11.4842 22.9685 8.60805 3 
10.0477 24.4049 10.0429 3 
10.0446 21.5348 10.0399 3 
8.60605 22.9744 11.4741 3 
11.4848 22.9679 11.4761 3 
14.357 22.9697 8.6083 3 
12.9208 21.532 10.0424 3 
15.7956 21.5348 10.0417 3 
12.9181 24.4081 10.0399 3 
15.7944 24.4103 10.0384 3 
14.3544 22.9762 11.4719 3 
17.2318 22.9709 8.60714 3 
20.1055 22.97 8.60542 3 
18.6711 21.5335 10.0385 3 
18.6736 24.4128 10.035 3 
17.2417 22.9809 11.4664 3 
20.1157 22.9741 11.4657 3 
22.9762 22.9688 8.60719 3 
24.4105 24.4055 10.0445 3 
21.5431 21.532 10.0394 3 
22.9763 22.9701 11.478 3 
21.545 24.4089 10.0377 3 
24.4095 21.532 10.0451 3 
25.8441 22.9681 8.61062 3 
25.8434 22.9682 11.4824 3 
27.2786 24.4039 10.0474 3 
27.2781 21.5318 10.0474 3 
0.00167473 28.7111 8.61246 3 
2.87133 28.7106 8.6126 3 
2.87081 25.8398 8.61189 3 
0.00143187 25.8397 8.61212 3 
0.00156535 28.7106 11.4842 3 
2.87171 28.7101 11.4842 3 
2.8713 25.8392 11.4838 3 
1.43633 27.275 10.0483 3 
0.00134369 25.8392 11.4838 3 
5.74168 28.7107 8.61189 3 
5.74048 25.8407 8.61029 3 
4.30628 27.2752 10.0478 3 
7.17696 27.2755 10.0466 3 
5.7412 25.8401 11.4826 3 
5.74244 28.71 11.4838 3 
8.61175 28.7119 8.61028 3 
8.61242 28.7113 11.4825 3 
8.61205 25.8404 8.60932 3 
11.4828 25.8419 8.60751 3 
10.0459 27.2782 10.0434 3 
8.61263 25.84 11.481 3 
11.4784 25.8466 11.474 3 
14.3561 25.8432 8.60664 3 
12.918 27.2804 10.041 3 
15.7929 27.2823 10.0393 3 
14.353 25.8508 11.4698 3 
17.2309 25.8447 8.60538 3 
20.1064 25.8455 8.60416 3 
20.1185 25.8578 11.4638 3 
18.6697 27.2843 10.0376 3 
17.2349 25.855 11.4656 3 
22.977 25.843 8.60671 3 
22.9778 25.8452 11.4778 3 
24.4109 27.2785 10.0449 3 
21.5449 27.2842 10.0384 3 
25.8447 25.8407 8.61052 3 
25.8441 25.8407 11.4824 3 
27.279 27.2758 10.0476 3 
1.43669 1.43358 12.92 3 
2.87208 2.86863 14.3555 3 
1.4368 1.43339 15.7909 3 
0.00139507 2.86939 14.3555 3 
4.30746 1.43312 12.9199 3 
7.17818 1.43341 12.9196 3 
5.74305 2.86849 14.3554 3 
4.30784 1.43285 15.7909 3 
7.17888 1.43294 15.7908 3 
10.0492 1.43387 12.919 3 
8.61433 2.86859 14.3552 3 
10.0504 1.43293 15.7907 3 
11.4859 2.86848 14.3549 3 
12.9209 1.43424 12.918 3 
15.7935 1.43499 12.917 3 
14.3573 2.86869 14.3543 3 
12.9226 1.43237 15.7905 3 
15.7939 1.43296 15.7895 3 
18.6666 1.43644 12.9167 3 
17.2289 2.86957 14.354 3 
20.1004 2.87068 14.3546 3 
18.6649 1.43478 15.7901 3 
20.103 0.00185541 14.354 3 
17.2318 0.000457469 14.3512 3 
21.5379 1.43693 12.9183 3 
24.4087 1.43616 12.9191 3 
22.9721 2.8712 14.3549 3 
21.537 1.43628 15.7904 3 
24.4082 1.43584 15.7906 3 
22.9742 0.00175176 14.3545 3 
25.843 2.87052 14.3553 3 
27.2785 1.43458 12.9197 3 
27.2783 1.43436 15.7908 3 
1.43634 4.3044 12.9201 3 
1.43561 7.1749 12.9199 3 
1.43647 4.30431 15.7909 3 
1.43571 7.175 15.7909 3 
2.87149 5.73931 14.3555 3 
0.000739061 5.74015 14.3555 3 
4.30629 7.17416 12.9197 3 
4.30712 4.30394 12.9199 3 
7.17828 4.30395 12.9197 3 
7.17754 7.17409 12.9193 3 
4.30664 7.17429 15.7908 3 
7.17879 4.30385 15.7908 3 
4.30746 4.30386 15.7909 3 
7.17812 7.17431 15.7907 3 
5.74263 5.73909 14.3553 3 
10.0497 4.30411 12.9194 3 
10.049 7.17453 12.9188 3 
10.0504 4.30386 15.7906 3 
10.0497 7.17492 15.7904 3 
11.4855 5.73957 14.3548 3 
8.61409 5.73926 14.3551 3 
12.9211 4.30436 12.919 3 
15.7926 4.3048 12.9187 3 
12.9207 7.17513 12.9187 3 
15.7921 7.17555 12.919 3 
12.9216 4.30389 15.7905 3 
15.7925 4.30431 15.7903 3 
12.9208 7.17561 15.7903 3 
15.7916 7.17599 15.7905 3 
14.3566 5.73994 14.3547 3 
18.6643 4.30549 12.9187 3 
18.6635 7.17584 12.9193 3 
18.6636 4.30512 15.7905 3 
18.6629 7.17607 15.7906 3 
17.2277 5.74036 14.3548 3 
20.0992 5.74077 14.355 3 
24.4072 4.30605 12.9196 3 
21.5358 4.30605 12.9192 3 
21.535 7.17612 12.9197 3 
24.4062 7.17625 12.9199 3 
21.5352 4.30582 15.7906 3 
21.5345 7.17621 15.7907 3 
24.4059 7.17631 15.7908 3 
22.9707 5.74108 14.3552 3 
24.4068 4.30593 15.7907 3 
27.2779 4.30533 12.9199 3 
27.2771 7.17584 12.92 3 
27.2778 4.30524 15.7909 3 
27.277 7.1759 15.7909 3 
25.842 5.7409 14.3554 3 
1.43498 10.0456 12.9197 3 
2.87052 8.6097 14.3553 3 
1.43513 10.0458 15.7909 3 
2.86992 11.4806 14.3551 3 
8.38976e-05 8.61081 14.3555 3 
4.30486 10.044 12.9191 3 
7.17556 10.0433 12.9183 3 
5.73927 11.4785 14.3545 3 
5.74141 8.60904 14.355 3 
4.30527 10.0444 15.7907 3 
7.17645 10.044 15.7905 3 
8.6105 11.4784 14.354 3 
10.0469 10.0437 12.9167 3 
10.0485 10.0454 15.7901 3 
8.61302 8.60946 14.3546 3 
11.4845 8.61047 14.354 3 
11.4816 11.4797 14.3512 3 
14.356 8.61126 14.3543 3 
12.9199 10.0451 12.917 3 
15.7923 10.0457 12.918 3 
14.3553 11.4814 14.3526 3 
12.9194 10.047 15.7895 3 
15.7907 10.0475 15.7904 3 
18.664 10.0461 12.919 3 
20.0993 11.4821 14.355 3 
18.6629 10.047 15.7907 3 
20.0989 8.6114 14.3552 3 
17.2279 11.4816 14.3543 3 
17.2273 8.61142 14.3549 3 
21.535 10.0466 12.9196 3 
24.4058 10.047 12.92 3 
22.9699 11.4827 14.3554 3 
21.5343 10.0471 15.7908 3 
24.4055 10.0472 15.7909 3 
22.9702 8.6116 14.3554 3 
28.7119 11.4819 14.3554 3 
25.8413 8.61156 14.3555 3 
27.2767 10.0466 12.92 3 
25.8412 11.4824 14.3555 3 
27.2766 10.0468 15.7909 3 
1.43497 12.9169 12.9195 3 
1.43539 15.7884 12.9191 3 
2.87036 14.3524 14.3548 3 
1.43524 12.9174 15.7908 3 
1.43582 15.789 15.7907 3 
0.000141618 14.3534 14.3553 3 
4.30412 12.9149 12.9185 3 
7.17171 12.9111 12.9166 3 
4.30448 15.7864 12.9169 3 
7.16804 15.7789 12.9095 3 
5.73915 14.3499 14.3541 3 
4.30624 15.7879 15.7903 3 
4.30487 12.9157 15.7905 3 
7.17335 12.9126 15.7903 3 
7.17549 15.7858 15.7906 3 
11.4696 14.3398 14.3384 3 
8.60555 14.3449 14.3545 3 
10.0394 12.9074 12.9094 3 
10.0088 15.7482 12.8756 3 
10.0465 12.9147 15.7905 3 
10.0441 15.7834 15.8009 3 
12.9185 12.9109 12.9109 3 
15.7946 12.9128 12.914 3 
12.9194 15.7621 12.8873 3 
15.8071 15.7713 12.8986 3 
12.9158 12.9172 15.7858 3 
15.7905 12.9177 15.7897 3 
12.8984 15.7785 15.7596 3 
15.802 15.7774 15.781 3 
14.3563 14.3451 14.3453 3 
18.6661 12.9152 12.9169 3 
18.6635 15.7892 12.9159 3 
17.2324 14.3484 14.3504 3 
20.098 14.3546 14.3547 3 
18.6637 12.9176 15.7905 3 
18.6586 15.7939 15.7909 3 
21.5348 12.9178 12.9191 3 
21.5375 15.7865 12.917 3 
24.4061 12.9176 12.9197 3 
24.4066 15.7885 12.9192 3 
21.5337 12.9189 15.7908 3 
24.4056 12.9182 15.7909 3 
21.535 15.7888 15.7906 3 
22.9705 14.3532 14.3551 3 
24.4056 15.7895 15.7909 3 
27.2768 12.9177 12.9199 3 
27.277 15.789 12.9197 3 
25.8414 14.3536 14.3554 3 
27.2767 12.918 15.7909 3 
27.2767 15.7895 15.7909 3 
1.43589 18.6601 12.9191 3 
0.000666548 20.096 14.355 3 
2.87194 20.0955 14.3547 3 
0.000410049 17.2248 14.3551 3 
1.43638 18.6602 15.7906 3 
2.87129 17.2239 14.3543 3 
4.30577 18.6594 12.9173 3 
7.1716 18.658 12.9111 3 
5.74213 20.0949 14.3528 3 
5.74043 17.2212 14.3514 3 
4.30786 18.659 15.7897 3 
7.17812 18.6553 15.7859 3 
10.0228 18.6589 12.8874 3 
11.3873 17.1267 14.2512 3 
11.4351 20.1284 14.3096 3 
8.60596 20.0958 14.3454 3 
10.0394 18.6378 15.7596 3 
8.60056 17.2091 14.3384 3 
12.9108 18.6501 12.8837 3 
15.7871 18.6656 12.9102 3 
14.3568 20.0961 14.3922 5 
12.7707 18.5101 15.3887 5 
15.7555 18.6972 15.8039 5 
14.3889 17.1743 14.3096 3 
17.2785 20.0638 14.3096 3 
18.6814 18.6455 12.8986 3 
17.2205 17.2321 14.353 3 
20.1042 17.2201 14.3505 3 
20.1075 20.0963 14.3454 3 
18.6752 18.6507 15.7811 3 
21.5399 18.6579 12.9142 3 
24.407 18.6601 12.9183 3 
22.9713 20.0972 14.3528 3 
21.5349 18.6621 15.7899 3 
22.971 17.2246 14.3546 3 
24.4051 18.6617 15.7907 3 
27.2771 18.6603 12.9194 3 
25.8412 17.2251 14.3552 3 
25.8414 20.0965 14.3547 3 
27.2767 18.6609 15.7908 3 
1.43619 21.5316 12.9193 3 
1.43636 24.403 12.9196 3 
1.43665 21.5311 15.7908 3 
1.43665 24.4025 15.7908 3 
2.87205 22.9668 14.3552 3 
0.000934313 22.9672 14.3551 3 
4.30637 21.5318 12.9183 3 
7.17347 21.5341 12.9142 3 
4.30663 24.4034 12.9192 3 
7.17581 24.4055 12.917 3 
5.7423 22.9674 14.3545 3 
4.30833 21.5303 15.7907 3 
7.1786 21.5299 15.7899 3 
4.30766 24.4024 15.7909 3 
7.17835 24.4032 15.7906 3 
10.032 21.5466 12.8987 3 
10.0499 24.4028 12.9159 3 