ITEM: TIMESTEP
23044
ITEM: NUMBER OF ATOMS
2001
ITEM: BOX BOUNDS pp pp pp
0.0000000000000000e+00 2.8712000000000000e+01
0.0000000000000000e+00 2.8712000000000000e+01
0.0000000000000000e+00 2.8712000000000000e+01
ITEM: ATOMS x y z c_cna 
1.43509 1.43417 1.43419 3 
2.87054 2.86937 2.86951 3 
4.30602 1.43418 1.43419 3 
7.1772 1.43417 1.43407 3 
5.74182 2.8694 2.86943 3 
10.0488 1.43381 1.43358 3 
8.61333 2.86924 2.86915 3 
11.4847 2.86897 2.86877 3 
12.9202 1.43331 1.43298 3 
15.7911 1.4329 1.43269 3 
14.3557 2.86867 2.86852 3 
18.6618 1.43279 1.43277 3 
17.2265 2.86848 2.86846 3 
20.0972 2.86846 2.86861 3 
21.5328 1.43305 1.43317 3 
24.4043 1.43363 1.43371 3 
22.9683 2.86871 2.86892 3 
28.7113 2.86933 2.86946 3 
27.2759 1.4341 1.43413 3 
25.8397 2.86908 2.86926 3 
1.43498 4.3042 1.43459 3 
1.43515 7.17379 1.4353 3 
2.87045 5.73922 2.8702 3 
4.30601 4.30423 1.43458 3 
7.1773 4.30423 1.4344 3 
4.30564 7.17383 1.43531 3 
7.17658 7.17371 1.43534 3 
5.74163 5.73922 2.87015 3 
10.0489 4.30417 1.43391 3 
10.0483 7.17392 1.43487 3 
8.61315 5.73929 2.86985 3 
11.4846 5.73934 2.86946 3 
12.9202 4.30403 1.43344 3 
15.7912 4.30388 1.4332 3 
12.92 7.17413 1.43433 3 
15.7911 7.17421 1.43408 3 
14.3557 5.73931 2.86921 3 
18.662 4.30378 1.43327 3 
18.6621 7.17421 1.43415 3 
17.2266 5.73925 2.86918 3 
20.0974 5.7392 2.86931 3 
21.5328 4.30379 1.43359 3 
21.5332 7.17407 1.4345 3 
22.9684 5.73917 2.86961 3 
24.4046 7.17381 1.43497 3 
24.4041 4.30393 1.43405 3 
28.7113 5.73913 2.87018 3 
27.2757 4.30408 1.43445 3 
27.2763 7.1736 1.43535 3 
25.8398 5.7391 2.86994 3 
1.43558 10.044 1.43609 3 
2.87037 8.60912 2.87101 3 
2.87037 11.48 2.87137 3 
0.000555106 11.4797 2.87173 3 
2.87036 8.60871 2.43577e-05 3 
0.000565239 8.60827 0.00029137 3 
2.87037 11.4795 0.000555895 3 
0.00171039 11.4787 0.00130023 3 
4.30513 10.044 1.43611 3 
7.17501 10.0431 1.43691 3 
5.74088 8.60895 2.87117 3 
5.74028 11.4797 2.87175 3 
5.73907 11.4786 0.00138728 3 
5.74016 8.60832 0.000327285 3 
10.0471 10.0433 1.43656 3 
8.61241 8.60903 2.87099 3 
11.4842 8.60936 2.87054 3 
8.61118 11.4793 2.87201 3 
11.4835 11.4799 2.87131 3 
11.4816 11.4772 0.00251047 3 
8.61102 8.60791 0.000661059 3 
8.60789 11.4764 0.00348967 3 
12.9194 10.0439 1.43581 3 
15.7909 10.0443 1.43548 3 
14.3556 8.60959 2.87022 3 
14.3553 11.4805 2.87079 3 
14.3547 11.4783 0.00141403 3 
18.6622 10.0443 1.43556 3 
17.2266 8.60969 2.87014 3 
20.0976 8.60964 2.87032 3 
17.2265 11.4808 2.87069 3 
20.0978 11.4806 2.87092 3 
17.2266 11.4787 0.0011422 3 
20.0984 11.4784 0.00156644 3 
21.5337 10.044 1.43599 3 
24.4059 10.0434 1.43666 3 
22.9689 8.6094 2.87065 3 
22.9696 11.48 2.87144 3 
22.9696 8.60851 7.38399e-05 3 
22.9714 11.4774 0.0026731 3 
28.7119 8.60889 2.87116 3 
27.2778 10.0431 1.43689 3 
25.8405 8.60901 2.87105 3 
25.8418 11.4794 2.87206 3 
25.845 11.4765 0.00349767 3 
25.8418 8.60788 0.000693667 3 
1.43592 12.9154 1.43631 3 
1.43603 15.7877 1.43607 3 
2.87044 14.3518 2.87125 3 
0.000888473 14.3517 2.87165 3 
2.87046 14.3514 0.000545695 3 
0.00208895 14.3509 0.00146311 3 
4.3049 12.9154 1.43637 3 
4.30496 15.7877 1.4361 3 
7.17405 12.9144 1.43759 3 
7.17399 15.7872 1.43729 3 
5.74008 14.3516 2.87166 3 
5.73883 14.3508 0.00150668 3 
10.045 12.9134 1.43811 3 
10.0445 15.7864 1.43768 3 
8.61065 14.3512 2.87201 3 
11.4825 14.3512 2.87139 3 
11.4779 14.3467 0.00491676 3 
8.60672 14.3488 0.00417989 3 
12.9186 12.9147 1.43654 3 
15.7907 12.9155 1.43589 3 
12.917 15.7861 1.43617 3 
15.7903 15.7878 1.43449 3 
14.3548 14.3522 2.87031 3 
14.3542 14.3496 0.00155558 3 
18.6623 12.9156 1.43598 3 
18.6625 15.7878 1.43457 3 
17.2264 14.3527 2.87005 3 
20.098 14.3524 2.87046 3 
17.2265 14.3506 0.000917117 3 
20.0987 14.3498 0.0017316 3 
21.5344 12.9148 1.43674 3 
24.408 12.9136 1.43821 3 
21.5359 15.7863 1.43637 3 
22.9705 14.3514 2.87151 3 
24.4084 15.7866 1.43781 3 
22.975 14.3469 0.00511357 3 
27.2789 12.9146 1.43754 3 
27.279 15.7873 1.43729 3 
25.8424 14.3514 2.87204 3 
25.8462 14.3491 0.00423489 3 
1.43602 18.6601 1.4356 3 
2.87052 17.224 2.87087 3 
2.87058 20.0963 2.8704 3 
0.000941992 17.224 2.87126 3 
0.00081037 20.0963 2.87074 3 
0.00196417 17.2237 0.00103436 3 
2.87055 17.2238 0.000190528 3 
0.00167771 20.0963 0.000423322 3 
5.73946 20.0963 0.00043316 3 
4.30512 18.6601 1.43563 3 
7.17433 18.6601 1.43664 3 
5.74013 17.2239 2.87126 3 
5.74036 20.0963 2.87076 3 
5.73909 17.2236 0.00103469 3 
10.045 18.6599 1.43671 3 
8.61071 17.2238 2.87147 3 
11.4823 17.2236 2.8706 3 
8.61102 20.0963 2.87087 3 
11.4827 20.096 2.86995 3 
11.4793 20.0965 0.0019535 3 
11.4779 17.2217 0.0034231 3 
8.60717 17.223 0.00335609 3 
8.60801 20.0968 0.00232145 3 
12.9172 18.6592 1.43482 3 
15.7897 18.6588 1.4328 3 
14.3543 17.2238 2.86933 3 
14.3546 20.0954 2.8686 3 
14.3514 17.2209 0.00027196 3 
18.663 18.6589 1.43285 3 
17.2263 17.2243 2.86883 3 
20.0985 17.2239 2.86945 3 
17.2263 20.095 2.86789 3 
20.0981 20.0955 2.86867 3 
20.1014 17.221 0.000418094 3 
22.9735 20.0966 0.00211353 3 
21.5355 18.6594 1.43499 3 
24.4079 18.66 1.43685 3 
22.9705 17.2238 2.87073 3 
22.9701 20.0961 2.87005 3 
22.9749 17.2219 0.0036409 3 
27.2787 18.6602 1.43667 3 
25.8423 17.2239 2.87153 3 
25.842 20.0963 2.87091 3 
25.8458 17.2232 0.00345944 3 
25.8449 20.0968 0.00240886 3 
1.43589 21.5323 1.43509 3 
1.43567 24.4042 1.43464 3 
2.8706 22.9683 2.86992 3 
0.000555377 22.9684 2.87017 3 
4.30551 24.4042 1.43467 3 
4.30531 21.5324 1.43511 3 
7.17484 21.5327 1.43598 3 
5.74065 22.9684 2.87022 3 
7.1755 24.4047 1.43526 3 
10.0458 21.5327 1.43593 3 
8.61152 22.9684 2.8703 3 
11.4833 22.9679 2.86951 3 
10.0468 24.4046 1.4351 3 
11.4808 22.9694 0.000788498 3 
8.60905 22.9695 0.00127658 3 
12.9183 21.5318 1.43415 3 
15.7906 21.5302 1.43227 3 
14.3551 22.9669 2.86841 3 
12.9192 24.4035 1.43377 3 
15.7908 24.4024 1.43281 3 
18.662 21.5303 1.4323 3 
18.6618 24.4024 1.43288 3 
17.2263 22.9664 2.868 3 
20.0976 22.9669 2.86847 3 
22.972 22.9694 0.000970792 3 
21.5345 21.5318 1.43428 3 
24.4072 21.5327 1.43602 3 
21.5336 24.4035 1.43394 3 
22.9696 22.9679 2.86958 3 
24.4062 24.4046 1.43523 3 
27.2783 21.5326 1.43597 3 
25.8416 22.9684 2.87031 3 
27.2776 24.4046 1.43527 3 
25.8439 22.9695 0.00136231 3 
2.87056 28.711 2.8693 3 
1.43537 27.2755 1.43427 3 
2.87057 25.84 2.86951 3 
0.000122582 25.84 2.86969 3 
5.74152 28.7111 2.86936 3 
4.30578 27.2756 1.43431 3 
7.17641 27.2758 1.43451 3 
5.74104 25.8401 2.86971 3 
8.61293 28.7109 2.86916 3 
11.4845 28.7103 2.8687 3 
10.048 27.2754 1.43409 3 
8.61219 25.84 2.86969 3 
11.4839 25.8393 2.86908 3 
14.3556 28.7097 2.86837 3 
12.9198 27.2746 1.43322 3 
15.7909 27.2739 1.43277 3 
14.3554 25.8384 2.86848 3 
20.0972 28.7096 2.86847 3 
17.2264 28.7094 2.86828 3 
18.6618 27.2738 1.43285 3 
17.2263 25.8381 2.86829 3 
20.0974 25.8384 2.86855 3 
22.9686 28.7101 2.86886 3 
21.5331 27.2744 1.43344 3 
22.969 25.8392 2.8692 3 
24.4051 27.2753 1.43425 3 
28.7116 28.711 2.86936 3 
25.8402 28.7107 2.86925 3 
27.2767 27.2757 1.43456 3 
25.841 25.8399 2.86973 3 
25.8425 25.8408 8.06535e-05 3 
1.43501 1.43446 4.30431 3 
1.43528 1.43511 7.17399 3 
2.87053 2.86998 5.73941 3 
4.3061 1.4345 4.3043 3 
7.17749 1.43442 4.30423 3 
4.30584 1.43517 7.17395 3 
7.17685 1.43531 7.1738 3 
5.74175 2.87002 5.73934 3 
10.049 1.43408 4.30405 3 
10.0485 1.43501 7.17404 3 
8.6133 2.8699 5.73934 3 
11.4847 2.86962 5.73936 3 
12.9202 1.43363 4.30389 3 
15.7911 1.43328 4.30379 3 
12.92 1.43453 7.17423 3 
15.791 1.43415 7.17429 3 
14.3557 2.86933 5.73933 3 
18.6618 1.43316 4.30381 3 
18.6619 1.43403 7.17425 3 
17.2265 2.86912 5.7393 3 
20.0973 2.86912 5.7393 3 
21.5327 1.43338 4.30397 3 
24.4041 1.43386 4.30416 3 
21.5329 1.43426 7.17416 3 
24.4045 1.43475 7.17402 3 
22.9683 2.86935 5.73938 3 
28.7113 2.86993 5.73939 3 
27.2757 1.43432 4.30429 3 
27.2763 1.43519 7.17385 3 
25.8398 2.8697 5.73942 3 
1.43485 4.3046 4.30484 3 
1.4349 7.17442 4.30572 3 
1.43497 4.30548 7.17469 3 
1.43481 7.17538 7.17555 3 
2.8705 5.73997 5.74022 3 
7.17767 4.30465 4.3047 3 
4.30615 4.30464 4.30481 3 
4.30597 7.17446 4.30572 3 
7.17737 7.17454 4.30561 3 
4.30612 7.17539 7.17551 3 
4.30605 4.30551 7.17466 3 
7.17746 4.30552 7.17467 3 
5.7419 5.74001 5.74019 3 
7.17762 7.1755 7.17554 3 
10.0492 4.30458 4.30449 3 
10.0489 7.17473 4.30536 3 
10.049 4.30542 7.17484 3 
8.61344 5.74009 5.74012 3 
10.0491 7.17564 7.17567 3 
11.4848 5.74008 5.74008 3 
15.7912 4.30425 4.30424 3 
12.9203 4.30441 4.30433 3 
12.9202 7.17485 4.30516 3 
15.7912 7.17489 4.30507 3 
12.9202 4.30527 7.17494 3 
15.7912 4.30511 7.17497 3 
12.9203 7.17576 7.17576 3 
14.3558 5.74005 5.74006 3 
15.7912 7.17582 7.1758 3 
18.6619 4.30417 4.30426 3 
18.662 7.17487 4.30509 3 
18.6619 4.30504 7.17495 3 
17.2266 5.73999 5.74003 3 
18.6619 7.17581 7.17577 3 
20.0973 5.73996 5.74002 3 
21.5327 4.30421 4.30439 3 
24.4039 4.30434 4.3046 3 
21.5329 7.17481 4.30522 3 
24.4041 7.17464 4.30544 3 
21.5328 4.30508 7.17489 3 
21.5327 7.17574 7.17569 3 
22.9682 5.73995 5.7401 3 
24.4039 7.17557 7.17561 3 
24.404 4.30522 7.17482 3 
28.7111 5.73994 5.74021 3 
27.2754 4.3045 4.30476 3 
27.2756 7.17444 4.30565 3 
27.2756 4.30539 7.17472 3 
25.8396 5.73992 5.74018 3 
27.2753 7.17542 7.17558 3 
1.43511 10.0448 4.30629 3 
1.43489 10.0456 7.17591 3 
2.87043 8.60998 5.74093 3 
2.87043 11.4807 5.74108 3 
4.30568 10.0448 4.30627 3 
7.1767 10.0447 4.30636 3 
4.30599 10.0456 7.17588 3 
5.74163 8.61003 5.7409 3 
7.17735 10.0457 7.1759 3 
5.7413 11.4807 5.74109 3 
10.0485 10.0451 4.30605 3 
8.61319 8.61024 5.74085 3 
10.0489 10.0461 7.176 3 
11.4846 8.61053 5.74075 3 
8.61272 11.4809 5.74107 3 
11.4844 11.4814 5.74092 3 
12.92 10.0455 4.30576 3 
15.7911 10.0457 4.30561 3 
12.9202 10.0465 7.17609 3 
14.3557 8.61072 5.74071 3 
15.7911 10.0467 7.17613 3 
14.3556 11.4818 5.74079 3 
18.662 10.0458 4.30563 3 
17.2265 8.61081 5.74069 3 
18.6619 10.0468 7.1761 3 
20.0974 8.61078 5.7407 3 
17.2265 11.482 5.74075 3 
20.0974 11.482 5.74079 3 
21.5331 10.0456 4.30584 3 
24.4046 10.0452 4.30613 3 
21.5328 10.0466 7.17603 3 
22.9684 8.61057 5.74077 3 
22.9687 11.4816 5.74093 3 
24.404 10.0462 7.17597 3 
28.7112 8.60999 5.74095 3 
28.7116 11.4807 5.74115 3 
27.2762 10.0447 4.30638 3 
25.8398 8.61023 5.74088 3 
27.2756 10.0458 7.17593 3 
25.8403 11.481 5.74111 3 
1.43534 12.9161 4.30633 3 
1.43548 15.788 4.30602 3 
1.43512 12.9165 7.17576 3 
1.43534 15.788 7.17539 3 
2.87047 14.3521 5.74087 3 
4.30551 12.9161 4.30632 3 
4.30549 15.7879 4.30601 3 
7.17622 12.9159 4.30648 3 
7.17608 15.7879 4.30616 3 
4.30582 12.9164 7.17573 3 
7.1769 12.9165 7.17567 3 
4.30569 15.788 7.17535 3 
5.74106 14.3521 5.74085 3 
7.17654 15.7879 7.17524 3 
10.0478 12.9161 4.30628 3 
10.0475 15.7879 4.30591 3 
10.0486 12.9169 7.1758 3 
8.61234 14.3522 5.74083 3 
10.0481 15.7882 7.17538 3 
11.484 14.3526 5.7407 3 
15.7907 15.789 4.30484 3 
12.9196 12.9167 4.30573 3 
15.7909 12.9173 4.30545 3 
12.9191 15.7883 4.30529 3 
12.9201 12.9175 7.17595 3 
15.7911 12.918 7.17601 3 
12.9198 15.7889 7.17572 3 
14.3554 14.3533 5.74054 3 
15.7909 15.7896 7.17592 3 
18.6619 12.9174 4.3055 3 
18.662 15.7891 4.30487 3 
18.6618 12.9181 7.17597 3 
17.2264 14.3537 5.74046 3 
18.6618 15.7897 7.1759 3 
20.0974 14.3535 5.74054 3 
21.5333 12.917 4.30584 3 
21.5337 15.7885 4.30536 3 
24.4053 12.9163 4.30634 3 
24.4055 15.7882 4.30594 3 
21.5329 12.9178 7.17588 3 
24.4045 12.9171 7.17578 3 
21.5331 15.7892 7.17571 3 
22.969 14.3529 5.74072 3 
24.4049 15.7885 7.17541 3 
28.7119 14.3521 5.74091 3 
27.2767 12.9161 4.30652 3 
27.277 15.788 4.30617 3 
27.2761 12.9166 7.17572 3 
25.8407 14.3524 5.74088 3 
27.2765 15.7881 7.1753 3 
1.43555 18.6601 4.30559 3 
1.43553 18.6599 7.17494 3 
2.87052 17.224 5.74048 3 
2.8706 20.0961 5.74005 3 
0.000208487 20.0961 5.74004 3 
0.000133202 17.224 5.74049 3 
4.30556 18.6601 4.3056 3 
7.17612 18.6601 4.3057 3 
4.30565 18.6599 7.17493 3 
5.74095 17.2239 5.74046 3 
7.17628 18.6598 7.17479 3 
5.74096 20.096 5.74002 3 
10.0475 18.66 4.30539 3 
8.61213 17.224 5.74044 3 
10.0477 18.6599 7.17501 3 
11.4837 17.2243 5.74033 3 
8.61205 20.096 5.74002 3 
11.4836 20.096 5.73996 3 
12.9191 18.66 4.30473 3 
15.7905 18.6602 4.30419 3 
12.9194 18.6604 7.1755 3 
14.3551 17.2248 5.74023 3 
15.7908 18.661 7.1759 3 
14.355 20.096 5.73989 3 
18.6621 18.6602 4.30423 3 
17.2263 17.2252 5.74018 3 
18.6619 18.6611 7.17591 3 
20.0976 17.2249 5.74023 3 
17.2263 20.0961 5.73987 3 
20.0977 20.0961 5.73988 3 
21.5337 18.6602 4.30477 3 
24.4055 18.6602 4.30542 3 
21.5334 18.6605 7.17547 3 
22.9692 17.2245 5.74035 3 
24.4052 18.6601 7.17499 3 
22.9693 20.0961 5.73995 3 
27.277 18.6602 4.30574 3 
25.8409 17.2242 5.74045 3 
27.2768 18.6599 7.17481 3 
25.841 20.0961 5.74 3 
1.43554 21.5323 4.30511 3 
1.43541 24.4041 4.30463 3 
1.43561 21.532 7.17451 3 
2.87061 22.9682 5.73957 3 
1.43558 24.4041 7.17408 3 
0.00018707 22.9681 5.73958 3 
4.30567 21.5322 4.30512 3 
7.17629 21.5322 4.30523 3 
7.17659 24.4042 4.30475 3 
4.30577 24.4042 4.30464 3 
4.30564 21.532 7.1745 3 
7.17613 21.532 7.17435 3 
4.30561 24.4042 7.17406 3 
5.74101 22.9682 5.73957 3 
7.17612 24.4042 7.17388 3 
10.0481 24.4038 4.30451 3 
10.0477 21.532 4.30495 3 
10.0475 21.5319 7.17458 3 
8.61212 22.968 5.73957 3 
10.0474 24.4041 7.17409 3 
11.4836 22.9677 5.73957 3 
12.9193 21.5316 4.30434 3 
15.7907 21.5311 4.30384 3 
15.7908 24.4024 4.3038 3 
12.9196 24.4031 4.30409 3 
12.919 21.5319 7.17511 3 
15.7905 21.532 7.17555 3 
14.355 22.9672 5.73955 3 
15.7907 24.403 7.17492 3 
12.9191 24.4036 7.17459 3 
18.6619 21.5312 4.30385 3 
18.6618 24.4024 4.30381 3 
18.6622 21.532 7.17555 3 
17.2263 22.967 5.73955 3 
20.0977 22.9672 5.73953 3 
18.6621 24.403 7.1749 3 
21.5335 21.5316 4.30438 3 
24.4053 21.532 4.30496 3 
24.405 24.4037 4.30453 3 
21.5337 21.532 7.17508 3 
21.5337 24.4036 7.17451 3 
22.9693 22.9677 5.73955 3 
24.4055 21.5319 7.17453 3 
24.4056 24.404 7.17404 3 
21.5332 24.403 4.3041 3 
27.2769 21.5322 4.30522 3 
27.2766 24.4041 4.30473 3 
27.277 21.532 7.17433 3 
25.841 22.968 5.73956 3 
27.277 24.4041 7.1739 3 
1.4352 27.2756 4.3043 3 
2.87056 28.7114 5.73904 3 
1.43545 27.2759 7.17383 3 
2.87057 25.84 5.73917 3 
1.27438e-05 25.8399 5.73918 3 
5.74144 28.7114 5.739 3 
4.30593 27.2757 4.3043 3 
7.17702 27.2756 4.30434 3 
4.30565 27.276 7.1738 3 
5.74116 25.84 5.73915 3 
7.17634 27.2761 7.1736 3 
11.4844 28.7107 5.73907 3 
8.61283 28.7112 5.73898 3 
10.0485 27.2752 4.30414 3 
8.61238 25.8399 5.73916 3 
10.0478 27.276 7.17376 3 
11.4839 25.8394 5.73921 3 
14.3555 28.7101 5.73908 3 
12.92 27.2745 4.30393 3 
15.7909 27.2739 4.30378 3 
12.9196 27.2752 7.17417 3 
14.3553 25.8386 5.73925 3 
15.7909 27.2746 7.17434 3 
17.2264 28.7098 5.73906 3 
20.0973 28.71 5.73904 3 
18.6618 27.2739 4.30379 3 
17.2263 25.8383 5.73925 3 
18.6619 27.2745 7.1743 3 
20.0975 25.8385 5.7392 3 
22.9686 28.7104 5.73906 3 
21.5329 27.2743 4.30395 3 
21.5333 27.275 7.17408 3 
22.9691 25.8392 5.73918 3 
24.4053 27.2758 7.17371 3 
24.4046 27.275 4.30421 3 
28.7117 28.7113 5.73903 3 
27.2762 27.2755 4.30435 3 
25.8403 28.7111 5.73903 3 
25.8408 25.8397 5.73916 3 
27.2768 27.276 7.17362 3 
2.87053 2.8708 8.60933 3 
1.43576 1.43594 10.0442 3 
2.87052 2.87127 11.4802 3 
2.87054 0.000453384 11.4796 3 
0.00176748 0.00125007 11.4788 3 
9.85384e-06 2.87096 8.60913 3 
0.000623898 2.87163 11.4798 3 
0.000666558 0.00019424 8.60847 3 
5.74108 2.87103 8.6091 3 
5.74044 0.000279126 8.60845 3 
4.30533 1.43598 10.0441 3 
7.17517 1.43687 10.0433 3 
5.74035 2.87169 11.4799 3 
5.73927 0.00130402 11.4789 3 
8.61251 2.87101 8.60922 3 
11.4843 2.87071 8.60956 3 
8.61129 0.000735426 8.60812 3 
10.0472 1.4367 10.0436 3 
8.61121 2.87209 11.4795 3 
11.4836 2.87155 11.4801 3 
11.4836 0.000116306 8.6087 3 
11.4818 0.00272289 11.4775 3 
8.6081 0.00354003 11.4767 3 
14.3556 2.87039 8.60974 3 
12.9195 1.43606 10.0441 3 
15.7909 1.43561 10.0444 3 
14.3554 2.87108 11.4807 3 
14.3548 0.00158747 11.4785 3 
17.2265 2.87019 8.60979 3 
20.0974 2.87019 8.60971 3 
20.0981 0.001385 11.4785 3 
18.662 1.4355 10.0444 3 
17.2265 2.87083 11.4809 3 
20.0977 2.87088 11.4807 3 
17.2264 0.001141 11.4789 3 
22.9687 2.87045 8.60947 3 
21.5335 1.4358 10.0441 3 
24.4057 1.43646 10.0435 3 
22.9694 2.87131 11.48 3 
22.9712 0.00248507 11.4774 3 
25.8405 2.87084 8.60917 3 
25.8417 0.000535548 8.60807 3 
27.2778 1.43674 10.0433 3 
25.8417 2.87194 11.4794 3 
25.8449 0.00339937 11.4766 3 
2.87048 5.74079 8.61015 3 
1.43522 4.30616 10.045 3 
1.43491 7.17591 10.0456 3 
2.87046 5.74112 11.4808 3 
5.74167 5.74084 8.61015 3 
4.30579 4.3062 10.045 3 
4.30599 7.17591 10.0457 3 
7.17671 4.30636 10.0449 3 
7.17728 7.17595 10.0458 3 
5.74126 5.74117 11.4808 3 
8.61317 5.74087 8.61037 3 
11.4846 5.74086 8.61065 3 
10.0484 4.30619 10.0453 3 
10.0489 7.17606 10.0462 3 
8.61262 5.74117 11.481 3 
11.4844 5.7411 11.4815 3 
14.3558 5.74081 8.6108 3 
15.7912 4.3058 10.0459 3 
12.92 4.30599 10.0456 3 
12.9203 7.1762 10.0466 3 
15.7912 7.17629 10.0468 3 
14.3557 5.74104 11.482 3 
17.2266 5.74077 8.61086 3 
20.0973 5.74073 8.61075 3 
18.662 4.30573 10.0458 3 
18.662 7.17626 10.0468 3 
17.2266 5.74101 11.4821 3 
20.0975 5.74094 11.4819 3 
22.9683 5.74071 8.61055 3 
21.533 4.30579 10.0456 3 
21.5328 7.17615 10.0465 3 
22.9686 5.74097 11.4814 3 
24.404 7.176 10.0461 3 
24.4045 4.30602 10.0451 3 
28.7116 5.74111 11.4807 3 
28.7113 5.74079 8.61017 3 
25.8397 5.74073 8.6103 3 
27.2762 4.30625 10.0448 3 
27.2756 7.17592 10.0457 3 
25.8402 5.74107 11.4809 3 
2.87046 8.61074 8.61075 3 
2.87045 11.4811 8.6108 3 
1.43496 10.046 10.0459 3 
2.87042 8.61093 11.4811 3 
2.87042 11.4814 11.4812 3 
5.74173 8.61078 8.61076 3 
5.74139 11.4811 8.61072 3 
4.30593 10.046 10.0459 3 
7.17711 10.046 10.046 3 
5.74131 8.61084 11.4811 3 
5.74099 11.4812 11.4812 3 
8.61325 8.61096 8.61096 3 
11.4847 8.61125 8.61128 3 
8.61286 11.4813 8.61085 3 
11.4845 11.4819 8.61125 3 
10.0488 10.0464 10.0464 3 
8.61275 8.6109 11.4814 3 
11.4845 8.61125 11.482 3 
8.61216 11.4812 11.4813 3 
11.4841 11.4819 11.482 3 
14.3558 8.6115 8.61146 3 
14.3557 11.4824 8.61151 3 
12.9202 10.0469 10.047 3 
15.7912 10.0472 10.0472 3 
14.3558 8.61159 11.4825 3 
14.3557 11.4827 11.4828 3 
17.2266 8.6116 8.61152 3 
20.0973 8.61154 8.6114 3 
17.2265 11.4826 8.61159 3 
20.0973 11.4825 8.61142 3 
18.6619 10.0473 10.0472 3 
17.2266 8.61173 11.4826 3 
20.0974 8.61161 11.4824 3 
17.2266 11.4831 11.4831 3 
20.0974 11.4828 11.4827 3 
22.9683 8.61129 8.61116 3 
22.9685 11.482 8.61112 3 
21.5328 10.047 10.0468 3 
22.9685 8.61127 11.4819 3 
22.9689 11.4821 11.4819 3 
24.4042 10.0465 10.0463 3 
28.7115 11.4811 8.61073 3 
28.7112 8.61077 8.61077 3 
25.8397 8.61097 8.61092 3 
25.8401 11.4814 8.6108 3 
28.7115 8.61085 11.4811 3 
28.7119 11.4813 11.4811 3 
27.2757 10.0461 10.046 3 
25.8401 8.61092 11.4813 3 
25.8407 11.4813 11.4811 3 
2.87051 14.3522 8.61051 3 
4.24372e-05 14.3521 8.61032 3 
1.43526 12.9166 10.0457 3 
1.4356 15.7879 10.0454 3 
2.87048 14.3523 11.481 3 
0.000591239 14.3521 11.4806 3 
5.74094 14.352 8.61028 3 
4.30567 12.9166 10.0457 3 
7.17634 12.9163 10.0455 3 
4.30546 15.7879 10.0454 3 
7.17552 15.7874 10.0447 3 
5.74036 14.3519 11.4807 3 
8.61217 14.3521 8.61025 3 
11.4841 14.3527 8.61078 3 
10.048 12.9167 10.0458 3 
10.0469 15.7874 10.0448 3 
8.61057 14.3512 11.48 3 
11.4829 14.3518 11.4807 3 
14.3556 14.3536 8.6113 3 
12.92 12.9176 10.0466 3 
15.7911 12.9182 10.0471 3 
12.9194 15.7885 10.046 3 
15.791 15.7896 10.047 3 
14.3554 14.3532 11.4821 3 
17.2264 14.354 8.61147 3 
20.0973 14.3537 8.61124 3 
18.6619 12.9182 10.047 3 
18.6618 15.7897 10.047 3 
17.2265 14.3538 11.4826 3 
20.0976 14.3533 11.4821 3 
22.9689 14.353 8.6107 3 
21.533 12.9177 10.0465 3 
21.5335 15.7887 10.046 3 
22.9701 14.352 11.4806 3 
24.4049 12.9169 10.0457 3 
24.406 15.7876 10.0447 3 
25.8408 14.3523 8.61025 3 
27.2766 12.9165 10.0454 3 
27.2775 15.7876 10.0447 3 
25.8423 14.3514 11.4799 3 
2.87057 17.2238 8.61009 3 
2.87064 20.0959 8.60967 3 
1.43588 18.6598 10.0449 3 
2.87056 17.2238 11.4807 3 
2.87066 20.0959 11.4804 3 
0.000805773 20.0958 8.6093 3 
0.000493323 17.2238 8.60982 3 
0.00164434 20.0957 11.4796 3 
0.00122494 17.2236 11.4801 3 
5.74061 17.2236 8.60979 3 
5.74038 20.0957 8.60931 3 
4.30533 18.6597 10.0449 3 
7.17489 18.6593 10.044 3 
5.73989 17.2234 11.4802 3 
5.73957 20.0956 11.4797 3 
8.61154 17.2235 8.60965 3 
11.4834 17.2241 8.61035 3 
8.61104 20.0957 8.60912 3 
11.4828 20.096 8.60993 3 
10.0459 18.6592 10.044 3 
8.60917 17.2224 11.4787 3 
11.481 17.2225 11.4791 3 
8.60816 20.0951 11.4777 3 
11.4794 20.0954 11.4779 3 
14.3553 17.2252 8.61134 3 
14.3546 20.0966 8.61119 3 
12.9184 18.6602 10.0457 3 
15.7907 18.6618 10.0475 3 
14.3547 17.2246 11.4816 3 
14.3528 20.0972 11.4813 3 
17.2264 17.2258 8.61174 3 
20.0974 17.2253 8.61133 3 
17.2263 20.0972 8.61187 3 
20.0981 20.0967 8.61119 3 
18.662 18.6619 10.0475 3 
17.2264 17.226 11.4828 3 
20.0981 17.2248 11.4816 3 
17.2263 20.0993 11.4839 3 
20.0998 20.0973 11.4814 3 
22.9694 17.2243 8.61031 3 
22.97 20.0961 8.6099 3 
21.5344 18.6603 10.0457 3 
22.9718 17.2227 11.479 3 
22.9734 20.0955 11.4779 3 
24.407 18.6594 10.044 3 
25.8415 17.2238 8.60966 3 
25.8419 20.0958 8.60909 3 
27.2782 18.6595 10.044 3 
25.8438 17.2227 11.4786 3 
25.8448 20.0952 11.4776 3 
2.87064 22.9681 8.60927 3 
1.43608 24.4043 10.0441 3 
1.43606 21.5319 10.0445 3 
2.87063 22.9682 11.48 3 
0.000943199 22.9681 8.60885 3 
0.00191923 22.9682 11.479 3 
5.74023 22.9681 8.60885 3 
4.30508 24.4044 10.0441 3 
7.17411 24.4048 10.0428 3 
4.30523 21.5319 10.0445 3 
7.17442 21.5319 10.0434 3 
5.73924 22.9683 11.4791 3 
8.61073 22.9682 8.60856 3 
11.4823 22.9684 8.60931 3 
10.0446 24.4056 10.0423 3 
10.0451 21.532 10.0432 3 
8.60732 22.9689 11.4767 3 
11.478 22.9702 11.4765 3 
14.3543 22.9682 8.61047 3 
12.9173 21.5327 10.045 3 
15.7897 21.5332 10.047 3 
12.917 24.4058 10.0437 3 
15.7903 24.4042 10.0454 3 
14.3514 22.971 11.4796 3 
17.2264 22.9677 8.61097 3 
20.0985 22.9682 8.61046 3 
18.663 21.5332 10.047 3 
18.6624 24.4041 10.0454 3 
17.2263 22.9688 11.482 3 
20.1013 22.971 11.4796 3 
22.9705 22.9683 8.60925 3 
24.4078 21.532 10.0432 3 
21.5358 24.4057 10.0437 3 
24.4084 24.4055 10.0423 3 
21.5355 21.5328 10.045 3 
22.9748 22.9702 11.4764 3 
25.8423 22.9681 8.60852 3 
27.2787 21.5318 10.0434 3 
27.279 24.4047 10.0428 3 
25.8457 22.9688 11.4766 3 
2.87055 28.7119 8.60885 3 
2.87057 25.8402 8.60892 3 
0.000934953 25.8403 8.60848 3 
1.43602 27.2765 10.0439 3 
2.87055 25.8405 11.4796 3 
0.00206933 25.8411 11.4786 3 
5.74019 25.8404 8.60846 3 
5.73902 25.8412 11.4787 3 
7.1742 27.2775 10.0426 3 
4.30508 27.2765 10.0439 3 
8.6107 25.8408 8.60806 3 
11.4825 25.8408 8.60859 3 
11.478 25.8452 11.475 3 
8.60691 25.8431 11.4759 3 
10.0451 27.2786 10.042 3 
14.3553 28.7114 8.60909 3 
14.3548 25.8397 8.60953 3 
14.3542 25.8422 11.4784 3 
15.7907 27.2763 10.044 3 
12.9187 27.2772 10.0434 3 
20.0976 28.7112 8.60904 3 
17.2264 28.7111 8.60919 3 
17.2264 25.8392 8.60978 3 
20.098 25.8396 8.60948 3 
17.2264 25.8412 11.4791 3 
18.6621 27.2763 10.044 3 
20.0986 25.8421 11.4783 3 
22.9694 28.7118 8.6086 3 
22.9704 25.8406 8.60851 3 
21.5342 27.277 10.0433 3 
24.4079 27.2784 10.0419 3 
22.975 25.8451 11.475 3 
25.8423 25.8407 8.60802 3 
27.2789 27.2774 10.0426 3 
25.8461 25.8429 11.4758 3 
1.43599 1.43623 12.9155 3 
1.43594 1.43593 15.7877 3 
0.00083574 2.87159 14.3516 3 
2.87048 0.000396092 14.3515 3 
2.87045 2.87118 14.3519 3 
0.00201565 0.00135159 14.3509 3 
5.73896 0.00139043 14.351 3 
4.30503 1.43625 12.9156 3 
7.17416 1.43756 12.9147 3 
5.74007 2.87162 14.3517 3 
4.30494 1.43593 15.7877 3 
7.1741 1.43723 15.7873 3 
10.0451 1.43827 12.9136 3 
11.4826 2.87163 14.3513 3 
10.0447 1.4378 15.7865 3 
8.6107 2.87209 14.3514 3 
8.60697 0.00422042 14.3491 3 
11.4781 0.00512399 14.3468 3 
12.9187 1.43684 12.9149 3 
15.7908 1.43608 12.9157 3 
12.9172 1.43645 15.7863 3 
15.7905 1.43463 15.7879 3 
14.355 2.87063 14.3524 3 
14.3543 0.00171879 14.3498 3 
18.6622 1.43595 12.9157 3 
20.0986 0.00151302 14.3498 3 
18.6625 1.43449 15.7878 3 
20.098 2.87041 14.3523 3 
17.2266 2.87021 14.3528 3 
17.2264 0.000888484 14.3508 3 
21.5343 1.43657 12.9148 3 
24.4079 1.43807 12.9135 3 
21.5359 1.43613 15.7862 3 
24.4083 1.43759 15.7864 3 
22.9704 2.87137 14.3513 3 
22.9749 0.0048804 14.3467 3 
25.8461 0.00407916 14.3489 3 
27.2788 1.4375 12.9146 3 
27.2789 1.43714 15.7872 3 
25.8423 2.87195 14.3512 3 
1.43537 4.30631 12.9161 3 
1.43507 7.17587 12.9165 3 
2.87039 5.74097 14.3521 3 
1.43539 4.306 15.7879 3 
1.43518 7.17554 15.7879 3 
4.30572 7.17589 12.9165 3 
4.30553 4.30633 12.9162 3 
7.17617 4.30655 12.9161 3 
7.17678 7.17581 12.9166 3 
4.3055 7.17553 15.788 3 
7.17598 4.30621 15.788 3 
4.30539 4.30602 15.788 3 
7.17637 7.1754 15.788 3 
5.74093 5.74097 14.3522 3 
10.0477 4.30646 12.9162 3 
10.0485 7.17591 12.9171 3 
8.61224 5.74097 14.3523 3 
10.0475 4.30603 15.788 3 
10.048 7.17553 15.7884 3 
11.484 5.7409 14.3528 3 
12.9197 4.30603 12.9169 3 
15.7911 4.30577 12.9174 3 
12.9201 7.17611 12.9177 3 
15.7912 7.17625 12.9181 3 
12.9193 4.30555 15.7885 3 
15.7909 4.30512 15.7891 3 
12.9198 7.17591 15.7891 3 
15.7912 7.17616 15.7897 3 
14.3556 5.74082 14.3535 3 
18.6621 4.30567 12.9174 3 
18.662 7.17621 12.9181 3 
18.6623 4.30502 15.7891 3 
18.6622 7.17615 15.7897 3 
17.2266 5.74077 14.3538 3 
20.0977 5.74071 14.3534 3 
24.4052 4.30627 12.9161 3 
21.5334 4.30584 12.9169 3 
21.533 7.17604 12.9176 3 
24.4045 7.17584 12.917 3 
22.9691 5.74076 14.3527 3 
21.5339 4.30533 15.7884 3 
21.5334 7.17583 15.789 3 
24.405 7.17548 15.7883 3 
24.4055 4.30586 15.788 3 
27.2767 4.30644 12.916 3 
28.7119 5.74094 14.3521 3 
27.276 7.17577 12.9165 3 
25.8407 5.74085 14.3522 3 
27.2769 4.3061 15.7879 3 
27.2764 7.17537 15.7879 3 
1.43519 10.046 12.9166 3 
2.87035 8.61073 14.3522 3 
2.87037 11.4813 14.3523 3 
0.000492426 11.4809 14.352 3 
1.43541 10.0456 15.7879 3 
4.30558 10.0459 12.9166 3 
7.17625 10.0456 12.9164 3 
5.74027 11.4808 14.352 3 
4.30526 10.0456 15.7879 3 
7.17541 10.0448 15.7875 3 
5.7408 8.6105 14.3521 3 
8.61054 11.48 14.3513 3 
10.048 10.0458 12.9168 3 
11.4829 11.4807 14.352 3 
8.61207 8.61038 14.3522 3 
10.0469 10.0449 15.7875 3 
11.484 8.61085 14.3529 3 
12.92 10.0466 12.9177 3 
15.7912 10.0471 12.9183 3 
12.9194 10.0461 15.7887 3 
15.7912 10.0471 15.7898 3 
14.3557 8.61145 14.3538 3 
14.3554 11.4821 14.3534 3 
18.662 10.0471 12.9183 3 
20.0978 11.4822 14.3533 3 
20.0976 8.61144 14.3537 3 
18.6621 10.0471 15.7898 3 
17.2267 8.61164 14.3541 3 
17.2266 11.4826 14.3539 3 
21.5332 10.0467 12.9176 3 
24.405 10.0459 12.9167 3 
22.9691 8.61085 14.3529 3 
21.5338 10.0462 15.7887 3 
24.4061 10.045 15.7875 3 
22.9702 11.4808 14.3519 3 
27.2766 10.0457 12.9163 3 
27.2774 10.0449 15.7875 3 
28.7119 8.61049 14.3521 3 
25.8408 8.61038 14.3521 3 
25.8423 11.4802 14.3512 3 
1.43545 12.9168 12.9166 3 
1.43579 15.7881 12.9164 3 
2.87044 14.3525 14.3524 3 
1.43564 12.9166 15.788 3 
1.43576 15.7883 15.7882 3 
0.000942117 14.3522 14.3521 3 
4.3054 12.9167 12.9167 3 
7.17555 12.9163 12.9164 3 
4.30521 15.788 12.9165 3 
7.17442 15.7871 12.9155 3 
5.73992 14.3521 14.3522 3 
4.30511 15.7882 15.7882 3 
4.3051 12.9166 15.7881 3 
7.17438 12.9155 15.7872 3 
7.17414 15.7876 15.7877 3 
10.0468 12.9164 12.9165 3 
10.0437 15.7853 12.9137 3 
11.4813 14.352 14.3521 3 
10.0437 12.9137 15.7854 3 
10.0431 15.787 15.7871 3 
8.60957 14.3515 14.3516 3 
12.9195 12.9178 12.9179 3 
15.7911 12.9189 12.919 3 
12.9172 15.7865 12.9152 3 
15.7908 15.7889 12.9177 3 
12.9173 12.9152 15.7866 3 
15.7909 12.9176 15.789 3 
12.9161 15.7892 15.7893 3 
15.7912 15.794 15.7941 3 
14.355 14.3546 14.3547 3 
18.662 12.919 12.919 3 
18.6621 15.7889 12.9176 3 
20.0981 14.3547 14.3546 3 
18.6623 12.9177 15.789 3 
18.6617 15.7941 15.7941 3 
17.2265 14.3559 14.3559 3 
21.5336 12.9179 12.9178 3 
21.5357 15.7867 12.9151 3 
24.4061 12.9166 12.9164 3 
24.4093 15.7855 12.9136 3 
21.5358 12.9154 15.7866 3 
24.4093 12.9139 15.7854 3 
21.5368 15.7894 15.7892 3 
24.4099 15.7873 15.787 3 
22.9717 14.3522 14.352 3 
27.2773 12.9165 12.9163 3 
27.2785 15.7873 12.9154 3 
25.8433 14.3517 14.3514 3 
27.2785 12.9157 15.7872 3 
27.2788 15.7878 15.7876 3 
2.87051 17.2241 14.3523 3 
1.43604 18.6599 12.9161 3 
2.87059 20.0961 14.352 3 
1.43581 18.6601 15.788 3 
0.00159511 20.096 14.3513 3 
0.00137957 17.2238 14.3518 3 
5.73963 17.2237 14.3518 3 
4.30515 18.6598 12.9161 3 
7.17373 18.6591 12.9148 3 
5.73952 20.0959 14.3514 3 
4.3052 18.6601 15.7881 3 
7.17395 18.6596 15.7871 3 
10.0413 18.6572 12.9115 3 
11.4701 20.0922 14.3412 3 
11.4743 17.2176 14.3454 3 
10.0401 18.6573 15.7839 3 
8.60775 17.2221 14.35 3 
8.60686 20.0953 14.3488 3 
12.9143 18.6579 12.9128 3 
15.79 18.6621 12.9178 3 
14.3455 20.0963 14.3452 3 
12.8988 18.6455 15.7713 3 
15.7812 18.6507 15.7775 3 
14.3506 17.2202 14.3485 3 
18.6628 18.6622 12.9178 3 
20.1072 20.0964 14.3452 3 
17.2264 20.1054 14.3521 3 
17.2264 17.2242 14.3522 3 
20.1022 17.2203 14.3485 3 
18.6716 18.6507 15.7775 3 
22.9786 17.2178 14.3453 3 
21.5385 18.6581 12.9127 3 
24.4116 18.6574 12.9114 3 
21.5541 18.6457 15.7713 3 
24.4128 18.6574 15.7838 3 
22.9828 20.0923 14.3411 3 
27.2794 18.6592 12.9146 3 
25.8461 20.0953 14.3486 3 
25.8452 17.2223 14.3499 3 
27.279 18.6597 15.787 3 
1.4362 21.5321 12.9157 3 
1.43627 24.4045 12.9153 3 
2.87057 22.9683 14.3516 3 
1.43587 21.5322 15.7877 3 
1.43602 24.4045 15.7873 3 
0.00189801 22.9686 14.3507 3 
4.30505 21.5321 12.9157 3 
7.17314 21.5321 12.9139 3 
4.30484 24.4046 12.9153 3 
7.1725 24.4058 12.9132 3 
5.7392 22.9687 14.3508 3 
4.30521 21.5323 15.7877 3 
7.17376 21.5326 15.7864 3 
4.30497 24.4046 15.7874 3 
7.17282 24.4063 15.7857 3 
10.0395 21.532 12.9097 3 
10.0379 24.4089 12.9078 3 
8.60561 22.9701 14.3473 3 
10.0386 21.5335 15.7817 3 
10.0353 24.4128 15.7792 3 
11.4659 22.974 14.3371 3 
15.7907 24.4063 12.9146 3 
12.9112 21.5341 12.9108 3 
15.786 21.5368 12.9173 3 
12.9096 24.4133 12.9073 3 
14.3385 22.983 14.3398 3 
12.8875 21.5332 15.7621 3 
15.7597 21.5543 15.7786 3 
15.801 24.4086 15.7834 3 
12.8759 24.4438 15.7481 3 
18.6667 21.5369 12.9173 3 
18.662 24.4063 12.9147 3 
20.1142 22.9831 14.3398 3 
17.2263 22.9678 14.3554 3 
18.693 21.5543 15.7786 3 
18.6518 24.4086 15.7834 3 
22.9871 22.974 14.337 3 