ITEM: TIMESTEP
24065
ITEM: NUMBER OF ATOMS
2001
ITEM: BOX BOUNDS pp pp pp
0.0000000000000000e+00 2.8712000000000000e+01
0.0000000000000000e+00 2.8712000000000000e+01
0.0000000000000000e+00 2.8712000000000000e+01
ITEM: ATOMS x y z c_cna 
1.43467 1.43485 1.43208 3 
2.87131 2.86901 2.86862 3 
2.8704 0.000639749 2.86805 3 
4.30591 1.43508 1.43176 3 
7.17592 1.43557 1.43154 3 
5.7415 2.87013 2.86786 3 
5.74112 0.000633728 2.8677 3 
10.0454 1.43564 1.43156 3 
8.61078 2.87102 2.86742 3 
11.4803 2.87084 2.86746 3 
11.4805 0.000471451 2.86739 3 
8.61081 0.000567817 2.86746 3 
12.9154 1.43532 1.43168 3 
15.7865 1.43504 1.43157 3 
14.3507 2.87021 2.86759 3 
14.3511 0.000399032 2.86733 3 
18.6583 1.43501 1.43136 3 
17.2222 2.86979 2.86745 3 
20.0938 2.86951 2.86776 3 
17.2225 0.000365067 2.86718 3 
20.0942 0.000347995 2.86732 3 
21.5302 1.4351 1.43154 3 
24.4023 1.43515 1.43186 3 
22.966 2.86942 2.86821 3 
22.9661 0.000427862 2.86759 3 
28.7115 2.86873 2.86912 3 
27.2746 1.43499 1.43218 3 
25.8387 2.86913 2.86877 3 
25.8383 0.000513936 2.86795 3 
28.7106 0.000584 2.86821 3 
1.43682 4.30245 1.43323 3 
1.44217 7.16793 1.43639 3 
2.87408 5.73687 2.87052 3 
0.00347763 5.73438 2.87307 3 
4.30712 4.30405 1.43219 3 
7.17604 4.30599 1.43152 3 
4.30764 7.17456 1.43297 3 
7.17583 7.17733 1.43143 3 
5.7419 5.7406 2.86821 3 
10.0452 4.30635 1.43153 3 
10.0453 7.17785 1.43117 3 
8.61075 5.74217 2.86723 3 
11.4802 5.74195 2.86734 3 
12.9147 4.30531 1.43208 3 
15.7856 4.30425 1.4324 3 
12.9148 7.17669 1.43201 3 
15.7837 7.17352 1.43419 3 
14.35 5.74041 2.86826 3 
18.6577 4.30403 1.43194 3 
18.6572 7.17298 1.4325 3 
17.2216 5.73948 2.86802 3 
20.0923 5.73768 2.86962 3 
24.4027 4.30378 1.43319 3 
21.5298 4.30392 1.4325 3 
21.5274 7.17009 1.43572 3 
22.9654 5.73686 2.87084 3 
24.4036 7.16868 1.4379 3 
27.2763 4.30281 1.43386 3 
27.2829 7.1653 1.44036 3 
25.8401 5.73564 2.87227 3 
0.0103624 11.4688 0.0105655 3 
1.44274 10.0397 1.44075 3 
2.87499 8.60797 2.87268 3 
2.87166 11.4844 2.86968 3 
0.0157742 8.59411 2.88523 3 
0.00533397 11.4849 2.87469 3 
0.012952 8.59597 0.00160362 3 
4.30623 10.0471 1.43324 3 
7.1753 10.049 1.43103 3 
5.74138 8.61243 2.86817 3 
5.74039 11.4849 2.86711 3 
10.0457 10.0496 1.43043 3 
8.61067 8.61378 2.8667 3 
11.4807 8.61382 2.86665 3 
8.61054 11.4853 2.86601 3 
11.4812 11.4854 2.8658 3 
12.9159 10.0492 1.43088 3 
15.7851 10.047 1.43295 3 
14.3506 8.61265 2.86761 3 
14.352 11.4852 2.86618 3 
18.6593 10.046 1.43035 3 
17.2221 8.6112 2.86746 3 
20.0877 8.60431 2.87415 3 
17.2246 11.4848 2.86484 3 
20.0903 11.4807 2.87106 3 
17.2155 8.60419 0.00192543 3 
22.9339 11.4398 0.0453337 3 
21.5156 10.0288 1.44831 3 
24.4034 10.0176 1.45746 3 
22.9624 8.6002 2.87838 3 
22.9665 11.4757 2.87437 3 
22.9637 8.60216 0.00373499 3 
27.314 10.006 1.47141 3 
25.8442 8.59601 2.88244 3 
25.8532 11.4688 2.87971 3 
25.9355 11.3815 0.09296 3 
25.851 8.59672 0.00845799 3 
1.43547 12.921 1.43376 3 
1.43553 15.7924 1.43372 3 
2.87104 14.3567 2.86875 3 
0.00417387 14.3567 2.87346 3 
4.30459 12.9205 1.43162 3 
4.30467 15.7927 1.43166 3 
7.17491 12.9207 1.43038 3 
7.17495 15.7922 1.43042 3 
5.74017 14.3565 2.86666 3 
10.0459 12.9208 1.42983 3 
10.0459 15.7919 1.42987 3 
8.61052 14.3564 2.86571 3 
11.4814 14.3563 2.86545 3 
12.9169 12.9209 1.4298 3 
15.7876 12.9206 1.43062 3 
12.9169 15.7918 1.42978 3 
15.7875 15.792 1.43064 3 
14.3525 14.3563 2.86562 3 
18.664 12.9211 1.42553 3 
18.664 15.7917 1.42554 3 
17.2258 14.3564 2.86363 3 
20.0942 14.3565 2.86733 3 
21.5208 12.9113 1.44206 3 
24.4245 12.8899 1.44096 3 
21.5208 15.8017 1.44209 3 
22.9756 14.3566 2.86746 3 
24.4245 15.8233 1.44097 3 
22.9707 14.3566 0.0978779 5 
27.2788 12.9313 1.43615 3 
27.2789 15.7821 1.43619 3 
25.838 14.3566 2.86408 3 
1.4429 18.6736 1.44078 3 
2.8718 17.2289 2.8697 3 
2.87515 20.1053 2.87271 3 
0.0159355 20.1192 2.88526 3 
0.0104452 17.2446 0.010568 3 
0.00541966 17.2285 2.8747 3 
0.0131144 20.1173 0.00162758 3 
4.30641 18.6662 1.43325 3 
7.17541 18.664 1.43105 3 
5.7405 17.2282 2.86715 3 
5.74155 20.1007 2.86822 3 
10.0457 18.6632 1.43048 3 
8.6106 17.2276 2.86605 3 
11.4812 17.2273 2.86582 3 
8.61076 20.0992 2.86676 3 
11.4807 20.099 2.8667 3 
12.9159 18.6635 1.43093 3 
15.7851 18.6657 1.433 3 
14.352 17.2275 2.8662 3 
14.3506 20.1001 2.86767 3 
18.6592 18.6668 1.4304 3 
17.2246 17.2279 2.8649 3 
20.0902 17.2323 2.87105 3 
17.222 20.1016 2.86753 3 
20.0877 20.1086 2.8742 3 
17.2153 20.1085 0.00198355 3 
21.5156 18.6842 1.44832 3 
24.4035 18.6955 1.45747 3 
22.9665 17.2375 2.87436 3 
22.9624 20.1129 2.87842 3 
22.9637 20.1109 0.0037511 3 
22.9339 17.2732 0.045361 3 
25.8511 20.1165 0.00848265 3 
27.3141 18.7073 1.47145 3 
25.8533 17.2445 2.87976 3 
25.8443 20.1172 2.88246 3 
25.9356 17.3318 0.0929857 3 
1.44239 21.5453 1.43641 3 
1.437 24.4108 1.43323 3 
2.87427 22.9764 2.87056 3 
0.0036674 22.9789 2.87306 3 
4.3073 24.4092 1.43221 3 
4.30783 21.5387 1.43301 3 
7.17599 21.5357 1.43149 3 
5.74207 22.9726 2.86825 3 
7.17618 24.4071 1.43156 3 
10.0454 21.535 1.43123 3 
8.61087 22.9709 2.86729 3 
11.4802 22.9709 2.86744 3 
10.0453 24.4066 1.43158 3 
12.9147 21.5361 1.43207 3 
15.7836 21.5392 1.43424 3 
14.3499 22.9724 2.86834 3 
12.9147 24.4075 1.43212 3 
15.7855 24.4085 1.43243 3 
18.6571 21.5398 1.43255 3 
18.6577 24.4087 1.432 3 
17.2215 22.9733 2.8681 3 
20.0923 22.9752 2.86966 3 
21.5274 21.5428 1.43576 3 
24.4037 21.5444 1.43791 3 
21.5298 24.4089 1.43251 3 
22.9654 22.9761 2.87089 3 
24.4028 24.4092 1.43326 3 
27.283 21.548 1.44037 3 
25.8402 22.9775 2.8723 3 
27.2764 24.4104 1.43388 3 
1.43475 27.2784 1.4321 3 
2.87142 25.8443 2.86862 3 
4.30597 27.2782 1.43177 3 
7.17595 27.2776 1.43154 3 
5.74162 25.8431 2.86787 3 
10.0454 27.2774 1.43159 3 
8.61087 25.8421 2.86744 3 
11.4803 25.8421 2.86752 3 
12.9154 27.2775 1.43172 3 
15.7865 27.2777 1.43159 3 
14.3507 25.8426 2.86765 3 
18.6583 27.2777 1.43141 3 
17.2221 25.8429 2.86751 3 
20.0938 25.8433 2.86782 3 
21.5302 27.2777 1.43157 3 
22.9661 25.8435 2.86827 3 
24.4023 27.2778 1.4319 3 
28.7116 25.8445 2.86913 3 
27.2747 27.2781 1.43219 3 
25.8388 25.8439 2.86883 3 
1.43487 1.43477 4.30451 3 
1.43441 1.43512 7.17587 3 
2.87116 2.86929 5.74085 3 
2.87041 0.000625036 5.74009 3 
4.30614 1.43511 4.30408 3 
7.17619 1.43564 4.30347 3 
4.30587 1.43537 7.17561 3 
7.17612 1.43583 7.17482 3 
5.74157 2.87038 5.73983 3 
5.74122 0.00064166 5.73956 3 
10.0457 1.43583 4.30314 3 
10.0458 1.43602 7.17407 3 
8.61099 2.87129 5.73891 3 
11.4807 2.87133 5.73852 3 
11.4808 0.000472433 5.73854 3 
8.611 0.000564262 5.73895 3 
12.9157 1.43561 4.303 3 
15.7867 1.43532 4.30293 3 
12.9159 1.43589 7.1737 3 
15.7866 1.43557 7.17382 3 
14.3511 2.87089 5.73843 3 
14.3512 0.00041591 5.73835 3 
18.6581 1.43505 4.30313 3 
18.6579 1.4353 7.17421 3 
17.222 2.87022 5.73886 3 
20.0936 2.86974 5.73939 3 
17.2223 0.000370005 5.73853 3 
20.0939 0.000377605 5.73886 3 
21.5299 1.43496 4.30346 3 
24.4021 1.4349 4.3039 3 
21.5297 1.43513 7.17466 3 
24.4018 1.43507 7.17514 3 
22.9657 2.86941 5.73993 3 
22.9659 0.000434037 5.73926 3 
28.711 2.869 5.74098 3 
27.2745 1.4348 4.30433 3 
27.2742 1.43505 7.17561 3 
25.8382 2.86917 5.74054 3 
28.7105 0.000606633 5.74005 3 
25.8381 0.00052565 5.73971 3 
1.43696 4.30235 4.30658 3 
1.44211 7.16869 4.31167 3 
1.43536 4.3042 7.1771 3 
1.43643 7.17508 7.17771 3 
2.87336 5.73808 5.74299 3 
0.000943637 5.73691 5.74372 3 
4.3081 7.17498 4.30599 3 
7.17636 4.3062 4.30355 3 
4.30743 4.30415 4.30499 3 
7.17621 7.17764 4.30334 3 
4.30652 7.17718 7.17611 3 
4.30668 4.30518 7.1764 3 
7.17621 4.30673 7.17483 3 
5.7419 5.74118 5.74018 3 
7.17598 7.1784 7.1744 3 
10.0456 4.30677 4.303 3 
10.0457 7.17831 4.30252 3 
10.0458 4.3073 7.17388 3 
8.61099 5.7426 5.73865 3 
10.0459 7.17881 7.17341 3 
11.4808 5.7427 5.73819 3 
15.7863 4.30542 4.30322 3 
12.9155 4.3062 4.30316 3 
12.9157 7.17783 4.30275 3 
15.7864 7.17672 4.30305 3 
12.916 4.30705 7.17356 3 
15.7864 4.30619 7.17406 3 
12.9163 7.17862 7.17308 3 
14.3512 5.74202 5.73829 3 
15.7867 7.17787 7.17365 3 
18.6572 4.3043 4.30406 3 
18.6554 7.17359 4.30582 3 
18.6575 4.30536 7.1748 3 
17.2213 5.74044 5.73954 3 
18.6575 7.1768 7.17465 3 
20.0926 5.73909 5.74082 3 
21.5292 4.30364 4.30483 3 
24.4021 4.30311 4.30563 3 
21.5274 7.17135 4.30805 3 
24.4021 7.16965 4.30982 3 
21.5294 4.30479 7.1755 3 
21.5293 7.17593 7.17545 3 
22.9652 5.73816 5.74185 3 
24.4021 7.17523 7.17624 3 
24.4018 4.30437 7.17617 3 
27.2757 4.30246 4.30647 3 
27.2789 7.16799 4.31175 3 
27.2746 4.30409 7.17682 3 
25.8388 5.73735 5.7429 3 
27.2755 7.17469 7.17725 3 
1.43905 10.0469 4.30853 3 
1.4352 10.0487 7.17618 3 
2.87257 8.61175 5.74211 3 
2.87155 11.4848 5.74098 3 
0.003208 8.60805 5.74455 3 
0.000323214 11.4844 5.74113 3 
4.30665 10.0486 4.30464 3 
7.17575 10.0495 4.30256 3 
4.3059 10.0494 7.17543 3 
5.74132 8.61346 5.73947 3 
7.17575 10.0499 7.17387 3 
5.74087 11.4853 5.73882 3 
10.0459 10.0499 4.30182 3 
8.61085 8.61421 5.73803 3 
10.046 10.0501 7.17292 3 
11.4811 8.61433 5.73755 3 
8.61079 11.4855 5.7375 3 
11.4814 11.4855 5.73701 3 
12.9165 10.0498 4.30183 3 
15.7878 10.0493 4.30162 3 
12.9168 10.0501 7.17252 3 
14.3519 8.61394 5.73751 3 
15.7876 10.0498 7.17285 3 
14.3527 11.4855 5.73669 3 
18.6566 10.0472 4.3043 3 
17.2219 8.61272 5.7388 3 
18.6586 10.0493 7.17339 3 
20.0926 8.61101 5.74038 3 
17.2233 11.4852 5.73733 3 
20.0947 11.4847 5.73783 3 
21.528 10.0444 4.30674 3 
24.4043 10.0414 4.30864 3 
21.5303 10.0485 7.1737 3 
22.9655 8.60957 5.74151 3 
22.9674 11.4831 5.73804 3 
24.4028 10.0475 7.17439 3 
27.2834 10.0398 4.31219 3 
25.8403 8.60824 5.74302 3 
27.2758 10.0472 7.17578 3 
25.8411 11.4817 5.7398 3 
1.43757 12.9207 4.30691 3 
1.43763 15.7927 4.30695 3 
1.43445 12.9209 7.17545 3 
1.43451 15.7925 7.17549 3 
2.87128 14.3567 5.74064 3 
4.306 12.9208 4.30381 3 
4.30607 15.7924 4.30381 3 
7.17553 12.9209 4.30203 3 
7.17558 15.7921 4.30203 3 
4.30559 12.921 7.17505 3 
7.17564 12.921 7.17358 3 
4.30565 15.7923 7.17507 3 
5.74076 14.3566 5.73859 3 
7.1757 15.792 7.17361 3 
10.046 12.921 4.30134 3 
10.046 15.7918 4.30135 3 
10.0461 12.921 7.17267 3 
8.61078 14.3565 5.73731 3 
10.0461 15.7918 7.17268 3 
11.4815 14.3563 5.73681 3 
12.9169 12.9209 4.30121 3 
15.7889 12.9209 4.30052 3 
12.9169 15.7917 4.30123 3 
15.7889 15.7918 4.30052 3 
12.9171 12.921 7.17218 3 
15.7882 12.921 7.17235 3 
12.9171 15.7917 7.1722 3 
14.3529 14.3563 5.73638 3 
15.7881 15.7917 7.17237 3 
18.6589 12.9208 4.30184 3 
18.6589 15.7921 4.30186 3 
18.6597 12.921 7.1724 3 
17.2238 14.3564 5.73683 3 
18.6597 15.7919 7.17242 3 
20.096 14.3565 5.7366 3 
21.5322 12.9201 4.30169 3 
21.5322 15.793 4.30172 3 
24.407 12.9163 4.30217 3 
24.407 15.797 4.30218 3 
21.5319 12.9209 7.17181 3 
24.4033 12.92 7.17234 3 
21.5319 15.7922 7.17183 3 
22.9695 14.3566 5.73546 3 
24.4033 15.7933 7.17239 3 
27.2765 12.921 4.30483 3 
27.2765 15.7924 4.30484 3 
28.7115 14.3567 5.74043 3 
27.2743 12.9207 7.17405 3 
25.839 14.3567 5.73745 3 
27.2744 15.7928 7.17408 3 
1.4392 18.6664 4.30855 3 
1.43535 18.6646 7.17623 3 
2.87165 17.2285 5.74102 3 
2.87275 20.1016 5.74218 3 
0.00336626 20.1053 5.74458 3 
0.00040436 17.2289 5.74115 3 
4.30679 18.6646 4.30468 3 
7.17586 18.6635 4.30263 3 
4.30605 18.6638 7.17548 3 
5.74098 17.2279 5.73886 3 
7.17587 18.6632 7.17393 3 
5.74147 20.0997 5.73955 3 
10.0459 18.663 4.30185 3 
8.61085 17.2274 5.73754 3 
10.0461 18.6627 7.17299 3 
11.4814 17.2272 5.73703 3 
8.61095 20.0988 5.7381 3 
11.4811 20.0985 5.73763 3 
12.9165 18.663 4.30188 3 
15.7877 18.6634 4.30169 3 
12.9168 18.6626 7.17257 3 
14.3526 17.2272 5.73671 3 
15.7875 18.6629 7.1729 3 
14.3518 20.0988 5.73759 3 
18.6565 18.6657 4.30434 3 
17.2232 17.2275 5.73738 3 
18.6586 18.6635 7.17344 3 
20.0947 17.2282 5.73787 3 
17.2218 20.1001 5.73887 3 
20.0926 20.1019 5.74044 3 
21.5281 18.6687 4.30675 3 
24.4043 18.6718 4.30866 3 
21.5303 18.6645 7.17378 3 
22.9674 17.2301 5.7381 3 
24.4029 18.6657 7.17449 3 
22.9656 20.1035 5.74157 3 
27.2835 18.6736 4.31223 3 
25.8412 17.2316 5.73986 3 
27.276 18.6661 7.17585 3 
25.8404 20.105 5.74308 3 
1.44229 21.5446 4.31172 3 
1.4371 24.4109 4.30661 3 
1.43662 21.5383 7.17776 3 
2.87355 22.9753 5.74305 3 
1.43551 24.4091 7.17715 3 
0.00112132 22.9764 5.74377 3 
4.30825 21.5383 4.30603 3 
7.17635 21.5355 4.30339 3 
7.17647 24.407 4.30357 3 
4.30757 24.4091 4.30502 3 
4.3067 21.5361 7.17618 3 
7.17613 21.5347 7.17447 3 
4.30686 24.4081 7.17644 3 
5.74207 22.972 5.74021 3 
7.17633 24.4064 7.17489 3 
10.0458 21.5346 4.30259 3 
10.0457 24.4062 4.30305 3 
10.046 21.5341 7.17347 3 
8.61109 22.9705 5.73868 3 
10.0459 24.4057 7.17391 3 
11.4808 22.9702 5.73827 3 
12.9157 21.5349 4.30284 3 
15.7864 21.536 4.30313 3 
15.7863 24.4073 4.3033 3 
12.9155 24.4066 4.30325 3 
12.9163 21.5341 7.17316 3 
15.7867 21.5349 7.17374 3 
14.3512 22.9707 5.73838 3 
15.7863 24.4065 7.17408 3 
12.916 24.4058 7.17361 3 
18.6554 21.5392 4.30588 3 
18.6572 24.4085 4.30413 3 
18.6575 21.536 7.17474 3 
17.2212 22.9723 5.73961 3 
20.0926 22.9737 5.74088 3 
18.6575 24.4074 7.17483 3 
21.5274 21.5416 4.3081 3 
24.4022 21.5435 4.30988 3 
24.4022 24.4099 4.30571 3 
21.5293 24.4092 4.30491 3 
21.5293 21.537 7.17552 3 
21.5294 24.4081 7.17555 3 
22.9653 22.9748 5.74191 3 
24.4022 21.5379 7.17636 3 
24.4019 24.4086 7.17622 3 
27.2791 21.5453 4.31177 3 
27.2758 24.4107 4.30652 3 
27.2756 21.5386 7.17733 3 
25.839 22.9758 5.74297 3 
27.2748 24.4091 7.17687 3 
1.43492 27.2785 4.30452 3 
1.43448 27.2781 7.17588 3 
2.87129 25.844 5.74087 3 
4.30622 27.2782 4.30407 3 
7.17624 27.2776 4.30349 3 
4.30595 27.2779 7.17562 3 
5.74168 25.8429 5.73986 3 
7.17617 27.2774 7.17483 3 
10.0457 27.2772 4.30313 3 
8.61107 25.8418 5.73893 3 
10.0459 27.277 7.17411 3 
11.4807 25.8416 5.73854 3 
12.9158 27.2773 4.30304 3 
15.7867 27.2774 4.30296 3 
12.9159 27.277 7.17369 3 
14.3511 25.8419 5.73847 3 
15.7866 27.2772 7.17384 3 
18.658 27.2777 4.30316 3 
17.222 25.8425 5.7389 3 
18.6579 27.2774 7.17423 3 
20.0936 25.843 5.73942 3 
21.5299 27.2778 4.3035 3 
24.4021 27.2781 4.30393 3 
21.5297 27.2777 7.17467 3 
22.9657 25.8435 5.74 3 
24.4019 27.2779 7.17517 3 
28.7111 25.8442 5.74103 3 
27.2746 27.2783 4.30436 3 
25.8383 25.8439 5.74059 3 
27.2742 27.2781 7.17563 3 
2.87013 2.87043 8.61129 3 
1.43381 1.43569 10.0459 3 
2.8692 2.87141 11.4807 3 
2.86988 0.000631056 8.61094 3 
2.86926 0.000627335 11.4807 3 
5.74095 2.87106 8.61064 3 
5.74082 0.000623685 8.6105 3 
4.30511 1.43587 10.0458 3 
7.17554 1.4361 10.0452 3 
5.73995 2.87175 11.4804 3 
5.74002 0.000630671 11.4804 3 
8.61079 2.87168 8.60959 3 
11.4807 2.87171 8.60889 3 
10.0454 1.43615 10.0443 3 
8.61005 2.87192 11.4796 3 
11.4801 2.87164 11.4788 3 
8.61079 0.000567462 8.60964 3 
11.4807 0.000459776 8.60898 3 
8.61011 0.000536721 11.4797 3 
11.4801 0.000452326 11.4789 3 
14.3511 2.87131 8.60884 3 
14.3508 0.000390109 11.4786 3 
12.9156 1.43596 10.0438 3 
15.7865 1.43572 10.0438 3 
14.3508 2.87123 11.4785 3 
14.3511 0.000395151 8.60883 3 
17.2221 2.87082 8.60923 3 
20.0937 2.87048 8.60973 3 
18.658 1.43558 10.0442 3 
17.2222 2.87094 11.4787 3 
20.094 2.87084 11.4791 3 
20.0938 0.00036664 8.60951 3 
17.2222 0.000379736 8.60909 3 
17.2221 0.000353424 11.4788 3 
20.0939 0.000384245 11.4791 3 
22.9657 2.8703 8.61028 3 
22.9658 0.000431753 8.60997 3 
21.5298 1.4355 10.0447 3 
24.4019 1.43552 10.0452 3 
22.9659 2.87085 11.4796 3 
22.9659 0.000433016 11.4796 3 
28.7101 0.000591953 8.61083 3 
28.7098 2.87115 11.4805 3 
28.7102 2.87019 8.61121 3 
25.8379 2.87017 8.61079 3 
28.7098 0.000603014 11.4805 3 
27.2739 1.43559 10.0456 3 
25.8379 2.87097 11.4801 3 
25.8379 0.000530481 8.61045 3 
25.8379 0.000509693 11.4801 3 
2.87053 5.74128 8.61159 3 
1.43389 4.30632 10.046 3 
1.43376 7.17784 10.0459 3 
2.86902 5.74279 11.4807 3 
5.74086 5.74246 8.61051 3 
4.30514 4.3068 10.0459 3 
4.3048 7.1785 10.0456 3 
7.17544 4.30742 10.0451 3 
7.17526 7.17893 10.0448 3 
5.7397 5.74324 11.4803 3 
8.61072 5.74315 8.60932 3 
11.4809 5.7432 8.60862 3 
10.0455 4.30761 10.0441 3 
10.0455 7.17902 10.0439 3 
8.61 5.7434 11.4795 3 
11.4803 5.74315 11.4787 3 
14.3513 5.74272 8.60864 3 
15.7866 4.30679 10.0438 3 
12.9157 4.30727 10.0437 3 
12.9161 7.1788 10.0435 3 
15.787 7.17838 10.0436 3 
14.351 5.74261 11.4784 3 
17.2222 5.74202 8.60919 3 
20.0937 5.74148 8.60982 3 
18.658 4.30642 10.0442 3 
18.6583 7.17802 10.044 3 
17.2223 5.74223 11.4786 3 
20.094 5.74208 11.4791 3 
22.9657 5.7411 8.61038 3 
21.5298 4.30623 10.0448 3 
21.53 7.17775 10.0444 3 
22.9659 5.74207 11.4795 3 
24.4019 7.17759 10.0449 3 
24.4018 4.30612 10.0452 3 
28.7096 5.7424 11.4804 3 
28.7106 5.74074 8.61158 3 
25.8381 5.7408 8.61101 3 
27.2739 4.30613 10.0457 3 
27.2739 7.17756 10.0455 3 
25.8378 5.74219 11.48 3 
2.86994 8.61357 8.61092 3 
2.86937 11.4854 8.61041 3 
1.4331 10.0497 10.0453 3 
2.8685 8.61443 11.4805 3 
2.86808 11.4857 11.4803 3 
5.74051 8.61419 8.61007 3 
5.74026 11.4855 8.60976 3 
4.3044 10.05 10.0453 3 
7.17512 10.0502 10.0446 3 
5.73943 8.61465 11.4802 3 
5.73924 11.4857 11.4802 3 
8.61067 8.61456 8.60894 3 
11.4811 8.61459 8.60822 3 
8.61065 11.4856 8.60866 3 
11.4814 11.4856 8.60796 3 
10.0457 10.0502 10.0437 3 
8.60997 8.61468 11.4795 3 
11.4805 8.6145 11.4787 3 
8.61 11.4857 11.4795 3 
11.4807 11.4855 11.4787 3 
14.3519 8.61434 8.6082 3 
14.3524 11.4856 8.60787 3 
12.9165 10.0501 10.0433 3 
15.7876 10.0499 10.0434 3 
14.3515 8.61421 11.4784 3 
14.3519 11.4854 11.4785 3 
17.2228 8.61393 8.60864 3 
20.0942 8.61342 8.60905 3 
17.2236 11.4855 8.60804 3 
20.0953 11.4854 8.60798 3 
18.6591 10.0497 10.0436 3 
17.2228 8.6139 11.4787 3 
20.0944 8.6137 11.4791 3 
17.2234 11.4853 11.4787 3 
20.0948 11.4852 11.4791 3 
22.966 8.61292 8.60948 3 
22.9667 11.4848 8.60815 3 
21.5304 10.0495 10.0439 3 
22.966 8.61371 11.4795 3 
22.966 11.4852 11.4794 3 
24.402 10.0493 10.0442 3 
28.7092 8.61407 11.4803 3 
28.7097 11.4851 8.60993 3 
28.7107 8.61262 8.61097 3 
25.8383 8.61254 8.61017 3 
25.8383 11.4845 8.60892 3 
28.7086 11.4856 11.4801 3 
27.2736 10.0493 10.0449 3 
25.8376 8.61384 11.4799 3 
25.8372 11.4854 11.4798 3 
2.86922 14.3567 8.61024 3 
1.43268 12.9211 10.0451 3 
1.43274 15.7922 10.0451 3 
2.86797 14.3566 11.4803 3 
5.74023 14.3566 8.60968 3 
4.30419 12.9211 10.0452 3 
7.17507 12.9211 10.0445 3 
4.30424 15.7921 10.0452 3 
7.1751 15.7919 10.0445 3 
5.7392 14.3565 11.4802 3 
8.61068 14.3564 8.60859 3 
11.4814 14.3564 8.60788 3 
10.0457 12.921 10.0437 3 
10.0458 15.7918 10.0437 3 
8.61001 14.3564 11.4795 3 
11.4808 14.3564 11.4787 3 
14.3525 14.3564 8.60776 3 
12.9167 12.921 10.0432 3 
15.788 12.9209 10.0433 3 
12.9167 15.7917 10.0432 3 
15.788 15.7918 10.0433 3 
14.3521 14.3563 11.4785 3 
17.224 14.3564 8.60788 3 
20.0958 14.3565 8.60757 3 
18.6596 12.921 10.0433 3 
18.6596 15.7919 10.0434 3 
17.2237 14.3564 11.4788 3 
20.0951 14.3565 11.4791 3 
22.9672 14.3566 8.60748 3 
21.531 12.9209 10.0434 3 
21.531 15.7921 10.0434 3 
22.966 14.3566 11.4794 3 
24.402 12.9208 10.0438 3 
24.402 15.7924 10.0438 3 
28.7094 14.3567 8.60965 3 
25.8378 14.3567 8.60841 3 
28.7084 14.3567 11.4801 3 
27.2731 12.921 10.0444 3 
27.2731 15.7924 10.0445 3 
25.837 14.3566 11.4798 3 
2.8695 17.2279 8.61047 3 
2.87014 20.0998 8.61099 3 
1.43327 18.6636 10.0454 3 
2.86821 17.2276 11.4804 3 
2.86871 20.0989 11.4806 3 
5.74037 17.2276 8.6098 3 
5.74067 20.099 8.61014 3 
4.30455 18.6632 10.0454 3 
7.17522 18.6629 10.0447 3 
5.73934 17.2274 11.4802 3 
5.7396 20.0985 11.4803 3 
8.61072 17.2273 8.60872 3 
11.4814 17.2271 8.608 3 
8.61078 20.0984 8.60901 3 
11.4812 20.0982 8.60831 3 
10.0457 18.6627 10.0438 3 
8.61004 17.2272 11.4795 3 
11.4807 17.2272 11.4787 3 
8.61009 20.0983 11.4796 3 
11.4805 20.0983 11.4788 3 
14.3523 17.2271 8.60794 3 
14.3518 20.0984 8.60828 3 
12.9164 18.6626 10.0434 3 
15.7876 18.6628 10.0434 3 
14.3519 17.2272 11.4785 3 
14.3514 20.0985 11.4785 3 
17.2236 17.2273 8.6081 3 
20.0952 17.2276 8.60804 3 
17.2228 20.0988 8.60871 3 
20.0942 20.0995 8.60912 3 
18.659 18.6631 10.0437 3 
17.2234 17.2274 11.4788 3 
20.0948 17.2277 11.4791 3 
17.2227 20.0989 11.4787 3 
20.0943 20.0991 11.4791 3 
22.9667 17.2283 8.60823 3 
22.9661 20.1002 8.60958 3 
21.5304 18.6635 10.0439 3 
22.966 17.2279 11.4795 3 
22.966 20.0993 11.4796 3 
24.402 18.6639 10.0443 3 
28.7109 20.1007 8.61106 3 
28.7099 17.2283 8.60999 3 
25.8383 17.2288 8.609 3 
25.8384 20.1007 8.61028 3 
28.7094 20.0992 11.4804 3 
28.7087 17.2278 11.4802 3 
27.2737 18.664 10.0449 3 
25.8373 17.2279 11.4798 3 
25.8377 20.0994 11.48 3 
2.87074 22.972 8.61165 3 
1.43406 24.4069 10.0461 3 
1.43398 21.5355 10.0459 3 
2.86921 22.9705 11.4807 3 
5.74102 22.9707 8.61055 3 
4.30533 24.4065 10.046 3 
7.17557 24.4057 10.0451 3 
4.30501 21.5348 10.0457 3 
7.17539 21.5342 10.0449 3 
5.73989 22.9699 11.4804 3 
8.61083 22.9699 8.60938 3 
11.4809 22.9697 8.60868 3 
10.0455 24.4054 10.0442 3 
10.0456 21.5339 10.044 3 
8.61012 22.9696 11.4796 3 
11.4803 22.9697 11.4788 3 
14.3513 22.97 8.6087 3 
12.9161 21.534 10.0436 3 
15.7869 21.5343 10.0437 3 
12.9157 24.4056 10.0437 3 
15.7865 24.4059 10.0439 3 
14.3509 22.9702 11.4785 3 
17.2221 22.9707 8.60926 3 
20.0937 22.9714 8.60988 3 
18.6583 21.5348 10.0441 3 
18.6579 24.4063 10.0443 3 
17.2222 22.9705 11.4787 3 
20.094 22.9707 11.4792 3 
22.9657 22.9719 8.61046 3 
22.966 22.9709 11.4796 3 
24.4019 21.5355 10.045 3 
21.5298 24.4066 10.0448 3 
24.4019 24.4069 10.0453 3 
21.53 21.5352 10.0445 3 
28.7108 22.9725 8.61165 3 
25.8382 22.9723 8.6111 3 
27.2741 21.5357 10.0456 3 
28.7098 22.9708 11.4805 3 
25.8379 22.9709 11.4801 3 
27.2741 24.407 10.0458 3 
2.87027 25.8428 8.61133 3 
2.86934 25.8419 11.4807 3 
1.43386 27.2775 10.046 3 
5.74107 25.8422 8.6107 3 
4.30519 27.2774 10.0458 3 
7.1756 27.2771 10.0452 3 
5.74007 25.8415 11.4805 3 
8.61085 25.8414 8.60965 3 
11.4807 25.8412 8.60893 3 
10.0454 27.2768 10.0443 3 
8.61012 25.8411 11.4797 3 
11.4801 25.8413 11.4788 3 
14.3511 25.8415 8.60887 3 
12.9156 27.2769 10.0438 3 
15.7865 27.277 10.0438 3 
14.3508 25.8415 11.4785 3 
17.2221 25.8419 8.60925 3 
20.0937 25.8423 8.60977 3 
20.0939 25.8419 11.4791 3 
18.658 27.2772 10.0442 3 
17.2221 25.8417 11.4787 3 
22.9657 25.8426 8.61031 3 
22.9659 25.842 11.4796 3 
24.4019 27.2774 10.0452 3 
21.5298 27.2773 10.0447 3 
28.7099 25.842 11.4806 3 
28.7103 25.843 8.61127 3 
25.838 25.8429 8.61084 3 
25.838 25.8421 11.4801 3 
27.274 27.2775 10.0456 3 
1.43344 1.43593 12.9154 3 
1.43327 1.43577 15.7853 3 
2.86883 2.87151 14.3503 3 
2.86888 0.000613567 14.3504 3 
4.30442 1.43614 12.9154 3 
7.17471 1.43623 12.915 3 
5.73929 2.87184 14.3502 3 
4.30404 1.43606 15.7854 3 
7.17427 1.43609 15.7851 3 
5.7394 0.000602014 14.3502 3 
10.0446 1.43602 12.9141 3 
11.4793 0.000436577 14.3488 3 
10.044 1.43575 15.7844 3 
11.4791 2.87097 14.3485 3 
8.60929 2.8717 14.3496 3 
8.60938 0.000526388 14.3496 3 
12.915 1.43569 12.9135 3 
15.7862 1.43548 12.9133 3 
12.9142 1.4352 15.7836 3 
15.7856 1.43488 15.7834 3 
14.3499 2.87027 14.3479 3 
14.3502 0.000380142 14.3484 3 
18.658 1.43538 12.9136 3 
20.094 2.87007 14.3484 3 
18.6578 1.43487 15.7837 3 
17.2218 2.87001 14.348 3 
17.2219 0.000343943 14.3485 3 
20.094 0.00035329 14.3488 3 
21.53 1.43544 12.9141 3 
24.402 1.43556 12.9145 3 
21.53 1.435 15.7841 3 
24.4021 1.43519 15.7846 3 
22.9661 2.8703 14.3489 3 
22.9661 0.000416641 14.3493 3 
28.7097 2.87101 14.3499 3 
28.7097 0.000562096 14.3501 3 
27.2739 1.43572 12.915 3 
25.8381 2.8706 14.3494 3 
27.2739 1.43546 15.785 3 
25.838 0.00048845 14.3498 3 
1.43332 4.30698 12.9153 3 
1.43291 7.17861 12.9153 3 
1.43347 4.30643 15.785 3 
1.43312 7.1781 15.7853 3 
2.86857 5.74293 14.3503 3 
4.30384 7.179 12.9155 3 
4.30424 4.30743 12.9154 3 
7.17458 4.30766 12.915 3 
7.17441 7.1791 12.9151 3 
4.30353 7.17881 15.7858 3 
7.17416 4.30738 15.7852 3 
4.30394 4.30723 15.7855 3 
7.17401 7.17892 15.7855 3 
5.73906 5.74332 14.3504 3 
11.4792 5.74241 14.3486 3 
10.0446 4.30737 12.9141 3 
10.0447 7.17888 12.9142 3 
8.60927 5.7432 14.3497 3 
10.0438 4.30672 15.7843 3 
10.044 7.17834 15.7846 3 
12.9149 4.30668 12.9132 3 
15.7861 4.30613 12.9131 3 
12.9152 7.17833 12.9134 3 
15.7862 7.17766 12.9132 3 
12.9134 4.30506 15.7827 3 
15.7847 4.30405 15.782 3 
12.9135 7.17703 15.7829 3 
15.7836 7.17493 15.7814 3 
14.3495 5.74112 14.3475 3 
20.0938 5.74074 14.3481 3 
17.2214 5.7406 14.3475 3 
18.658 4.30598 12.9134 3 
18.658 7.17745 12.9136 3 
18.6573 4.304 15.7823 3 
18.6565 7.17458 15.7818 3 
24.402 4.30628 12.9143 3 
21.53 4.30607 12.9139 3 
21.53 7.17754 12.9141 3 
24.4019 7.17783 12.9145 3 
22.9662 5.74111 14.3487 3 
21.5301 4.30437 15.7829 3 
21.5299 7.17518 15.7828 3 
24.4026 7.17599 15.7836 3 
24.4025 4.30489 15.7836 3 
27.2739 4.30657 12.9148 3 
27.2736 7.17818 12.9149 3 
27.2743 4.30555 15.7843 3 
27.2744 7.17701 15.7843 3 
25.8382 5.74159 14.3492 3 
28.7097 5.74223 14.3498 3 
1.43231 10.0502 12.9155 3 
2.86757 11.4858 14.351 3 
2.86801 8.61459 14.3507 3 
1.43233 10.0501 15.786 3 
4.30345 10.0503 12.9156 3 
7.17428 10.0503 12.9152 3 
5.73875 8.61474 14.3506 3 
4.30305 10.0503 15.7863 3 
7.17389 10.0502 15.7859 3 
5.73855 11.4858 14.3509 3 
11.4795 8.61406 14.3489 3 
10.0449 10.05 12.9143 3 
8.60928 8.61456 14.35 3 
10.0442 10.0498 15.785 3 
11.4797 11.4853 14.3491 3 
8.6093 11.4856 14.3502 3 
12.9156 10.0498 12.9136 3 
15.7869 10.0495 12.9136 3 
14.3506 11.4851 14.3485 3 
12.9141 10.0492 15.7835 3 
15.7848 10.0485 15.7828 3 
14.3501 8.61337 14.3481 3 
17.2223 11.4849 14.349 3 
18.6584 10.0492 12.914 3 
18.6562 10.0471 15.7832 3 
17.2213 8.61245 14.348 3 
20.0938 11.4844 14.35 3 
20.0937 8.61245 14.3488 3 
22.9654 11.4848 14.3507 3 
21.5301 10.0492 12.9146 3 
24.4015 10.0495 12.915 3 
22.9659 8.61291 14.3495 3 
21.5293 10.0475 15.7845 3 
24.4017 10.0486 15.7852 3 
28.7091 8.61415 14.3503 3 
27.2729 10.0499 12.9153 3 
25.8377 8.61353 14.3499 3 
27.2733 10.0495 15.7855 3 
25.8368 11.4855 14.3509 3 
28.7083 11.4857 14.3508 3 
1.43193 12.9213 12.9155 3 
1.43201 15.7921 12.9156 3 
2.86744 14.3566 14.3511 3 
1.43181 12.9212 15.7865 3 
1.43186 15.792 15.7866 3 
4.30327 12.9212 12.9156 3 
7.17425 12.9211 12.9152 3 
4.30334 15.792 12.9157 3 
7.17428 15.7919 12.9153 3 
5.73853 14.3565 14.351 3 
4.30287 15.7919 15.7867 3 
4.30282 12.9212 15.7867 3 
7.17385 12.9211 15.7862 3 
7.1739 15.7918 15.7862 3 
8.60932 14.3564 14.3503 3 
10.0449 12.921 12.9144 3 
10.0449 15.7918 12.9144 3 
11.4798 14.3563 14.3492 3 
10.0443 12.9209 15.7853 3 
10.0443 15.7918 15.7853 3 
12.9158 12.9209 12.9137 3 
15.7874 12.9208 12.9138 3 
12.9158 15.7918 12.9137 3 
15.7873 15.7918 12.9138 3 
12.9144 12.9207 15.7839 3 
15.7856 12.9206 15.7835 3 
12.9145 15.7919 15.7839 3 
15.7856 15.792 15.7835 3 
14.3508 14.3563 14.3486 3 
18.659 12.9208 12.9144 3 
18.659 15.7921 12.9145 3 
20.0943 14.3565 14.3505 3 
17.2227 14.3564 14.3493 3 
18.6578 12.9204 15.7849 3 
18.6578 15.7924 15.7849 3 
21.5301 12.9207 12.9151 3 
21.5301 15.7923 12.9151 3 
24.4011 12.921 12.9154 3 
24.4011 15.7922 12.9155 3 
21.5288 12.9199 15.7866 3 
24.4002 12.9209 15.7871 3 
21.5288 15.7931 15.7866 3 
24.4002 15.7922 15.7871 3 
22.9649 14.3566 14.3514 3 
28.7081 14.3567 14.351 3 
27.2724 12.9212 12.9155 3 
27.2724 15.7921 12.9155 3 
25.8363 14.3566 14.3513 3 
27.2723 12.9212 15.7865 3 
27.2724 15.7921 15.7865 3 
2.86768 17.2274 14.351 3 
1.43248 18.6631 12.9155 3 
2.86821 20.0987 14.3508 3 
1.43248 18.6632 15.7861 3 
5.73866 17.2273 14.351 3 
4.30363 18.6629 12.9156 3 
7.1744 18.6627 12.9152 3 
5.73891 20.0984 14.3508 3 
4.30323 18.6629 15.7864 3 
7.17401 18.6628 15.786 3 
10.0449 18.6627 12.9144 3 
11.4795 20.0986 14.349 3 
10.0442 18.6629 15.7851 3 
8.60935 20.0983 14.3501 3 
8.60935 17.2272 14.3503 3 
11.4797 17.2273 14.3492 3 
12.9156 18.6629 12.9136 3 
15.7868 18.6632 12.9136 3 
14.35 20.0993 14.3482 3 
12.9141 18.6634 15.7836 3 
15.7848 18.6641 15.7829 3 
14.3506 17.2275 14.3486 3 
18.6583 18.6636 12.9141 3 
20.0936 20.1004 14.3489 3 
17.2222 17.2278 14.349 3 
20.0938 17.2285 14.35 3 
18.6562 18.6657 15.7833 3 
17.2212 20.1003 14.3481 3 
21.53 18.6638 12.9147 3 
24.4016 18.6636 12.9151 3 
22.9654 17.2282 14.3508 3 
21.5292 18.6654 15.7846 3 
24.4018 18.6645 15.7853 3 
22.9659 20.1001 14.3495 3 
28.7093 20.0991 14.3504 3 
28.7084 17.2276 14.3509 3 
27.2731 18.6634 12.9154 3 
25.8368 17.2277 14.3509 3 
27.2735 18.6637 15.7856 3 
25.8379 20.0996 14.35 3 
1.43314 21.5347 12.9154 3 
1.4335 24.4063 12.9153 3 
2.86879 22.9703 14.3504 3 
1.43335 21.5351 15.7854 3 
1.43365 24.4068 15.7851 3 
4.30406 21.5342 12.9156 3 
7.17454 21.534 12.9152 3 
4.30441 24.4058 12.9155 3 
7.17469 24.4055 12.9151 3 
4.30374 21.5343 15.7859 3 
7.17416 21.5341 15.7856 3 
4.30411 24.406 15.7856 3 
7.17426 24.4057 15.7853 3 
5.73923 22.9698 14.3505 3 
11.4792 22.9704 14.3487 3 
10.0448 21.534 12.9143 3 
10.0441 21.5345 15.7847 3 
10.0439 24.4062 15.7844 3 
8.60937 22.9698 14.3498 3 
10.0447 24.4056 12.9142 3 
15.786 24.4066 12.9132 3 
12.9152 21.5344 12.9135 3 
15.7862 21.5351 12.9132 3 
12.9149 24.4061 12.9133 3 
14.3495 22.9716 14.3476 3 
12.9135 21.5356 15.783 3 
15.7836 21.5377 15.7815 3 
15.7847 24.4086 15.7822 3 
12.9134 24.4077 15.7829 3 
18.658 21.5353 12.9136 3 
18.6579 24.4068 12.9135 3 
18.6565 21.5381 15.7819 3 
18.6573 24.4087 15.7825 3 
17.2213 22.9721 14.3476 3 
20.0938 22.9721 14.3482 3 
21.53 21.5353 12.9142 3 
21.53 24.4068 12.9139 3 
24.4021 24.4067 12.9144 3 
24.402 21.5352 12.9146 3 
22.9662 22.9718 14.3487 3 
21.5299 21.5377 15.7829 3 
24.4026 21.537 15.7836 3 
21.5301 24.4084 15.7831 3 
24.4025 24.4081 15.7837 3 
28.7099 22.971 14.3499 3 
27.274 24.4066 12.9149 3 
27.2737 21.5351 12.9151 3 
27.2745 21.5362 15.7844 3 
27.2745 24.4075 15.7844 3 
25.8383 22.9715 14.3493 3 
1.43348 27.2773 12.9154 3 
1.43335 27.2774 15.7853 3 
2.86897 25.8417 14.3503 3 
4.3045 27.2771 12.9155 3 
7.17475 27.2769 12.915 3 
4.30411 27.2772 15.7855 3 
7.1743 27.277 15.7851 3 
5.73941 25.8414 14.3503 3 
10.0446 27.2769 12.9141 3 
10.044 27.2772 15.7844 3 
8.60935 25.8413 14.3496 3 
11.4792 25.8419 14.3486 3 
12.915 27.2771 12.9135 3 
15.7862 27.2772 12.9134 3 
12.9142 27.2776 15.7836 3 
15.7856 27.2778 15.7834 3 
14.3499 25.8424 14.348 3 
18.658 27.2773 12.9136 3 
18.6578 27.2778 15.7837 3 
17.2217 25.8427 14.3481 3 