ITEM: TIMESTEP
24065
ITEM: NUMBER OF ATOMS
18
ITEM: BOX BOUNDS pp pp pp
0.0000000000000000e+00 2.8712000000000000e+01
0.0000000000000000e+00 2.8712000000000000e+01
0.0000000000000000e+00 2.8712000000000000e+01
ITEM: ATOMS x y z c_cna 
22.9707 14.3566 0.0978779 5 
20.1458 14.3564 23.0154 5 
22.9615 14.3565 22.8613 5 
21.3801 16.194 24.2498 5 
21.3801 12.5189 24.2497 5 
24.365 15.7789 24.4368 5 
24.3649 12.9341 24.4368 5 
22.9661 11.5224 25.8356 5 
19.9916 14.3563 25.8312 5 
22.217 14.3564 25.0868 5 
21.5673 12.9341 27.2344 5 
21.5673 15.7789 27.2344 5 
23.7153 14.3566 26.5845 5 
24.5523 16.1943 27.4217 5 
24.5522 12.5188 27.4217 5 
25.9406 14.3566 25.8401 5 
25.7865 14.3566 28.6558 5 
22.9662 17.1906 25.8357 5 
ITEM: TIMESTEP
24066
ITEM: NUMBER OF ATOMS
18
ITEM: BOX BOUNDS pp pp pp
0.0000000000000000e+00 2.8712000000000000e+01
0.0000000000000000e+00 2.8712000000000000e+01
0.0000000000000000e+00 2.8712000000000000e+01
ITEM: ATOMS x y z c_cna 
22.9707 14.3566 0.0978779 5 
20.1458 14.3564 23.0154 5 
22.9615 14.3565 22.8613 5 
21.3801 16.194 24.2498 5 
21.3801 12.5189 24.2497 5 
24.365 15.7789 24.4368 5 
24.3649 12.9341 24.4368 5 
22.9661 11.5224 25.8356 5 
19.9916 14.3563 25.8312 5 
22.217 14.3564 25.0868 5 
21.5673 12.9341 27.2344 5 
21.5673 15.7789 27.2344 5 
23.7153 14.3566 26.5845 5 
24.5523 16.1943 27.4217 5 
24.5522 12.5188 27.4217 5 
25.9406 14.3566 25.8401 5 
25.7865 14.3566 28.6558 5 
22.9662 17.1906 25.8357 5 
