ITEM: TIMESTEP
25040
ITEM: NUMBER OF ATOMS
2001
ITEM: BOX BOUNDS pp pp pp
0.0000000000000000e+00 2.8712000000000000e+01
0.0000000000000000e+00 2.8712000000000000e+01
0.0000000000000000e+00 2.8712000000000000e+01
ITEM: ATOMS x y z c_cna 
1.43298 1.43485 1.43072 3 
2.87072 2.86779 2.86797 3 
4.30462 1.43407 1.43067 3 
7.17523 1.43434 1.4306 3 
5.74127 2.86828 2.86724 3 
10.0449 1.43473 1.43063 3 
8.61034 2.86954 2.86686 3 
11.4793 2.86957 2.86688 3 
12.9146 1.43438 1.43068 3 
15.7852 1.43413 1.4308 3 
14.3484 2.86835 2.86734 3 
18.6568 1.43491 1.43093 3 
17.219 2.8679 2.86812 3 
20.0916 2.86932 2.86833 3 
20.0937 0.000160535 2.86614 3 
21.5288 1.43609 1.43069 3 
24.4009 1.43658 1.43012 3 
22.965 2.87101 2.86668 3 
22.9653 0.000524265 2.86542 3 
28.7103 2.86924 2.86817 3 
27.273 1.43606 1.43055 3 
25.837 2.87092 2.86661 3 
25.8366 0.000495012 2.86534 3 
28.7082 0.000127003 2.86598 3 
1.4373 4.30202 1.43258 3 
1.44948 7.16263 1.43641 3 
2.87743 5.73332 2.87129 3 
0.0057247 5.73287 2.87567 3 
4.30804 4.30216 1.4313 3 
7.17617 4.30456 1.43085 3 
4.30977 7.17282 1.43247 3 
7.17613 7.17633 1.43115 3 
5.74285 5.73862 2.86819 3 
10.0448 4.30546 1.43075 3 
10.0448 7.17719 1.43086 3 
8.61051 5.74081 2.86711 3 
11.479 5.74083 2.86715 3 
12.9135 4.30462 1.43092 3 
15.7817 4.30225 1.43149 3 
12.9134 7.17633 1.43124 3 
15.78 7.17286 1.43267 3 
14.3468 5.73868 2.86828 3 
18.6526 4.30209 1.43279 3 
18.6404 7.16266 1.43667 3 
17.2124 5.73336 2.87147 3 
20.0842 5.73291 2.87585 3 
24.401 4.30757 1.43126 3 
21.5261 4.30526 1.43356 3 
21.5132 7.16533 1.44563 3 
22.9654 5.74026 2.86879 3 
24.401 7.181 1.43021 3 
27.2759 4.3052 1.43338 3 
27.2888 7.16533 1.44541 3 
25.8367 5.74024 2.8687 3 
1.44877 10.0367 1.44315 3 
2.88012 8.60472 2.87515 3 
2.87676 11.484 2.87255 3 
0.0395509 8.57371 2.90619 3 
0.0278794 11.4843 2.89216 3 
0.0316016 11.4757 0.00416532 3 
4.30802 10.0466 1.43327 3 
7.17543 10.0488 1.43109 3 
5.74252 8.61123 2.86871 3 
5.74156 11.4849 2.86793 3 
10.0448 10.0493 1.43068 3 
8.61028 8.61294 2.86706 3 
11.4792 8.61294 2.8671 3 
8.61009 11.4853 2.86661 3 
11.4794 11.4852 2.86665 3 
12.9141 10.0488 1.43119 3 
15.7817 10.0465 1.43345 3 
14.3471 8.61121 2.86882 3 
14.3481 11.4848 2.86801 3 
18.6411 10.0366 1.44337 3 
17.2097 8.60472 2.87531 3 
20.0504 8.5737 2.90637 3 
17.213 11.484 2.87268 3 
20.062 11.4843 2.89232 3 
20.0583 11.4756 0.00441413 3 
22.5633 11.3355 0.144521 5 
21.4259 9.9521 1.52793 3 
24.401 10.1013 1.37867 5 
22.9757 8.60895 2.87111 3 
22.9343 11.4633 2.87584 3 
22.9344 8.60412 0.0167871 3 
27.3761 9.95214 1.52773 3 
25.8264 8.60897 2.87101 3 
25.8677 11.4633 2.87574 3 
26.2387 11.3356 0.144334 5 
25.8677 8.60415 0.0166316 3 
1.44329 12.924 1.43835 3 
1.43923 15.7935 1.43013 3 
2.8753 14.3602 2.87036 3 
0.0166447 14.3721 2.88295 3 
4.3072 15.7941 1.43074 3 
4.30691 12.9214 1.43201 3 
7.17522 12.9213 1.43056 3 
7.1755 15.7936 1.43023 3 
5.74141 14.3579 2.86717 3 
10.0448 12.9213 1.43029 3 
10.0448 15.7934 1.43006 3 
8.61012 14.3574 2.86621 3 
11.4795 14.3574 2.86623 3 
12.9144 12.9213 1.43066 3 
15.7828 12.9213 1.43214 3 
12.9141 15.7935 1.43028 3 
15.7825 15.794 1.43083 3 
14.3483 14.3578 2.8672 3 
18.6465 12.9239 1.43855 3 
18.6506 15.7935 1.4303 3 
17.2145 14.3602 2.87044 3 
20.0733 14.372 2.88306 3 
21.4842 12.9538 1.48017 3 
24.401 12.917 1.53273 5 
21.5277 15.7854 1.42218 3 
22.9558 14.3669 2.87688 3 
24.401 15.7758 1.41245 3 
27.3177 12.9539 1.48 3 
27.2743 15.7854 1.42202 3 
25.8462 14.367 2.87679 3 
1.44117 18.6722 1.43659 3 
2.87237 17.2305 2.8672 3 
2.87178 20.1039 2.86896 3 
0.0166884 17.2463 0.00865499 3 
4.30769 18.6676 1.43208 3 
7.17573 18.6658 1.43058 3 
5.74121 17.2299 2.86667 3 
5.74093 20.1021 2.86723 3 
10.0448 18.6653 1.43028 3 
8.61012 17.2294 2.86613 3 
11.4794 17.2294 2.86612 3 
8.6101 20.1011 2.86641 3 
11.4795 20.1011 2.86642 3 
12.9139 18.6658 1.43064 3 
15.7821 18.6676 1.43217 3 
14.3484 17.2299 2.86668 3 
14.3487 20.1021 2.86721 3 
18.6487 18.6722 1.43674 3 
17.2174 17.2305 2.86726 3 
20.0906 17.2284 2.86513 3 
17.218 20.1039 2.86901 3 
20.0917 20.1024 2.86782 3 
20.0732 17.2463 0.00886572 3 
22.9558 17.2401 0.00367156 3 
21.5251 18.6691 1.43413 3 
24.401 18.6654 1.43016 3 
22.9657 17.2236 2.8603 3 
22.9653 20.1 2.86541 3 
28.7103 20.1024 2.86771 3 
28.7114 17.2284 2.86502 3 
27.2768 18.6691 1.43402 3 
25.8363 17.2236 2.86024 3 
25.8367 20.1 2.86538 3 
25.8462 17.2401 0.00356105 3 
1.43444 21.5385 1.43168 3 
1.43201 24.4072 1.43014 3 
2.86851 22.9728 2.86687 3 
4.30389 24.4079 1.43077 3 
4.30625 21.5389 1.43181 3 
7.17551 21.5374 1.43088 3 
5.73986 22.9728 2.86697 3 
7.1748 24.4078 1.4308 3 
10.0448 21.5369 1.4306 3 
8.60988 22.9722 2.86664 3 
11.4798 22.9722 2.86662 3 
10.0448 24.4075 1.43075 3 
12.9142 21.5374 1.43091 3 
15.7835 21.5389 1.43189 3 
14.3498 22.9728 2.86701 3 
12.9149 24.4078 1.43085 3 
15.7859 24.4079 1.43087 3 
18.6554 21.5385 1.43184 3 
18.6578 24.4072 1.43031 3 
17.2213 22.9728 2.86698 3 
20.0938 22.9715 2.86583 3 
21.5291 21.536 1.42971 3 
24.401 21.5348 1.42837 3 
21.5297 24.4061 1.42918 3 
22.9655 22.9705 2.86471 3 
24.4009 24.4057 1.4286 3 
28.7081 22.9715 2.8657 3 
27.2728 21.536 1.42957 3 
25.8364 22.9705 2.86464 3 
27.2721 24.4062 1.42907 3 
2.86789 28.7116 2.86646 3 
1.43171 27.2772 1.43003 3 
2.86732 25.8421 2.86615 3 
5.73931 28.7114 2.86663 3 
4.3033 27.2771 1.43043 3 
7.17444 27.2771 1.43061 3 
5.73884 25.8423 2.86656 3 
11.4799 28.7116 2.86668 3 
8.60986 28.7115 2.86666 3 
10.0449 27.2771 1.43066 3 
8.60965 25.8422 2.86663 3 
11.4801 25.8422 2.86664 3 
14.3505 28.7114 2.8667 3 
12.9153 27.2771 1.43066 3 
15.7865 27.2771 1.43057 3 
14.3509 25.8423 2.86662 3 
17.2219 28.7116 2.8666 3 
18.6581 27.2772 1.43022 3 
17.2225 25.8421 2.86625 3 
20.0942 25.8417 2.86548 3 
21.5296 27.2772 1.42965 3 
22.9655 25.8415 2.86478 3 
24.4009 27.2772 1.42926 3 
28.7077 25.8418 2.86533 3 
27.2722 27.2772 1.42949 3 
25.8364 25.8415 2.86473 3 
1.43282 1.43404 4.30316 3 
1.43179 1.43413 7.17444 3 
2.87025 2.86739 5.74093 3 
4.30465 1.4335 4.30326 3 
7.17523 1.43393 4.30291 3 
4.30405 1.43356 7.17511 3 
7.17493 1.4339 7.17471 3 
5.74115 2.86805 5.73992 3 
10.0449 1.43436 4.30275 3 
10.0448 1.43431 7.17444 3 
8.61029 2.86932 5.73903 3 
11.4793 2.86934 5.73902 3 
12.9145 1.43395 4.30296 3 
15.7851 1.43356 4.30333 3 
12.9147 1.43392 7.17474 3 
15.7857 1.4336 7.17515 3 
14.3485 2.86808 5.74 3 
18.657 1.43412 4.30329 3 
18.658 1.4342 7.17449 3 
17.2195 2.86746 5.74102 3 
20.0932 2.86893 5.73968 3 
21.5294 1.4351 4.30218 3 
24.401 1.43535 4.30167 3 
21.5298 1.43465 7.17383 3 
24.401 1.43475 7.17358 3 
22.9653 2.86958 5.73882 3 
27.2725 1.43501 4.30209 3 
28.7087 2.86886 5.73959 3 
27.2721 1.4346 7.17381 3 
25.8367 2.86953 5.73878 3 
1.43736 4.30055 4.30761 3 
1.45132 7.15991 4.32006 3 
1.43358 4.303 7.17702 3 
1.43736 7.17246 7.17943 3 
2.87663 5.73347 5.74656 3 
4.30842 4.30139 4.30546 3 
4.31093 7.17208 4.30793 3 
7.17634 4.30416 4.30362 3 
7.17657 7.17602 4.30402 3 
4.30841 7.17461 7.17861 3 
4.30722 4.30213 7.17787 3 
7.17604 4.30432 7.17572 3 
5.74294 5.73857 5.74148 3 
7.1763 7.17652 7.17583 3 
10.0448 4.30513 4.30308 3 
10.0448 7.17696 4.30314 3 
10.0448 4.30515 7.17493 3 
8.61058 5.74068 5.73942 3 
10.0448 7.17712 7.17489 3 
11.479 5.74068 5.73943 3 
15.7813 4.30145 4.30559 3 
12.9133 4.3042 4.30366 3 
12.913 7.17604 4.30406 3 
15.7788 7.17207 4.30801 3 
12.9136 4.30436 7.17572 3 
15.7825 4.30222 7.17792 3 
12.9133 7.17657 7.1758 3 
14.3467 5.73861 5.7415 3 
15.7813 7.17466 7.17857 3 
18.6562 4.30305 7.17705 3 
18.6525 4.30061 4.30774 3 
18.6385 7.15989 4.32023 3 
17.2131 5.73351 5.74663 3 
18.6525 7.1725 7.17943 3 
20.0914 5.73663 5.74352 3 
21.5289 4.30398 4.30474 3 
24.401 4.30464 4.30376 3 
21.5293 7.17042 4.30968 3 
24.4011 7.17166 4.30844 3 
21.5293 4.30415 7.17599 3 
21.5289 7.17548 7.17608 3 
22.9651 5.73818 5.74194 3 
24.4011 7.17639 7.17537 3 
24.401 4.30443 7.17563 3 
28.7105 5.73661 5.74343 3 
27.2731 4.3039 4.30463 3 
27.2727 7.17043 4.30958 3 
27.2727 4.30411 7.17595 3 
25.837 5.73817 5.74189 3 
27.2732 7.17547 7.17608 3 
1.44949 10.0435 4.31723 3 
1.43729 10.0475 7.17793 3 
2.87743 8.60873 5.74661 3 
2.8758 11.4855 5.7446 3 
0.00576024 8.60436 5.74706 3 
0.00421518 11.4835 5.74348 3 
4.30971 10.0475 4.30703 3 
7.17612 10.0489 4.30357 3 
4.308 10.0488 7.17775 3 
5.74283 8.6119 5.74131 3 
7.17611 10.0493 7.17535 3 
5.7422 11.4855 5.74044 3 
10.0448 10.0493 4.30274 3 
8.61048 8.61303 5.73917 3 
10.0448 10.0495 7.17446 3 
11.479 8.61305 5.73916 3 
8.61034 11.4855 5.73864 3 
11.4792 11.4855 5.7386 3 
12.9134 10.0489 4.30359 3 
15.78 10.0475 4.30708 3 
12.9135 10.0493 7.17526 3 
14.3468 8.6119 5.74131 3 
15.7817 10.0488 7.17766 3 
14.3474 11.4855 5.74037 3 
18.6404 10.0435 4.31732 3 
17.2124 8.60875 5.74664 3 
18.6526 10.0475 7.17785 3 
20.0842 8.60434 5.74711 3 
17.214 11.4855 5.74459 3 
20.0858 11.4835 5.74347 3 
21.5132 10.0345 4.31466 3 
24.4011 10.0498 4.29896 3 
21.5261 10.0467 7.17471 3 
22.9654 8.61137 5.73976 3 
22.9607 11.4808 5.73705 3 
24.401 10.0489 7.17241 3 
27.2888 10.0346 4.31456 3 
25.8367 8.6114 5.73975 3 
27.2759 10.0467 7.17475 3 
25.8414 11.4808 5.73705 3 
1.44528 12.9253 4.31307 3 
1.44111 15.7999 4.30888 3 
1.43595 12.9222 7.1764 3 
1.4344 15.795 7.17532 3 
2.87407 14.3603 5.74282 3 
0.00112472 14.3596 5.74155 3 
4.3085 12.9222 4.30555 3 
4.30763 15.7953 4.30435 3 
7.17585 12.9216 4.30292 3 
7.17569 15.7938 4.30253 3 
4.30716 12.9224 7.17669 3 
7.17582 12.9218 7.17473 3 
4.3062 15.795 7.1757 3 
5.74164 14.3583 5.73962 3 
7.17547 15.794 7.17421 3 
10.0448 12.9215 4.30227 3 
10.0448 15.7934 4.302 3 
10.0448 12.9217 7.17395 3 
8.61023 14.3577 5.73819 3 
10.0448 15.7937 7.17357 3 
11.4794 14.3577 5.73815 3 
12.9138 12.9216 4.30292 3 
15.7812 12.9222 4.30556 3 
12.9139 15.7938 4.30249 3 
15.7821 15.7954 4.30432 3 
12.9138 12.9219 7.17463 3 
15.7825 12.9224 7.17657 3 
12.9141 15.794 7.17411 3 
14.348 14.3584 5.73954 3 
15.7835 15.795 7.17553 3 
18.6446 12.9253 4.31315 3 
18.6488 15.7999 4.30891 3 
18.6539 12.9222 7.17631 3 
17.2157 14.3603 5.74278 3 
18.6555 15.795 7.17516 3 
20.0888 14.3596 5.74151 3 
21.5201 12.9213 4.30918 3 
21.5251 15.7974 4.30584 3 
24.401 12.9122 4.30226 3 
21.5275 12.9204 7.17293 3 
21.5292 15.7929 7.17265 3 
22.9646 14.3555 5.73652 3 
24.401 15.7917 7.1715 3 
24.401 15.7935 4.3021 3 
24.4011 12.9183 7.17036 3 
27.2819 12.9213 4.30912 3 
27.2768 15.7974 4.30578 3 
27.2745 12.9204 7.173 3 
25.8374 14.3555 5.73652 3 
27.2728 15.7929 7.17275 3 
1.43413 18.6655 4.30227 3 
1.43256 18.6656 7.17376 3 
2.87171 17.2322 5.74068 3 
2.86849 20.1011 5.73797 3 
4.30473 18.6662 7.1745 3 
4.30576 18.666 4.30287 3 
7.17533 18.6654 4.30229 3 
5.7409 17.2303 5.7389 3 
7.17493 18.6656 7.17374 3 
5.73971 20.1012 5.73814 3 
10.0448 18.6651 4.30199 3 
8.61007 17.2295 5.73794 3 
10.0448 18.6653 7.17335 3 
11.4795 17.2296 5.73787 3 
8.60982 20.1009 5.7378 3 
11.4798 20.1009 5.73778 3 
12.9142 18.6655 4.30226 3 
15.7839 18.6661 4.30281 3 
12.9147 18.6656 7.17364 3 
14.3487 17.2304 5.73879 3 
15.7849 18.6663 7.17434 3 
14.3499 20.1013 5.73807 3 
18.6557 18.6656 4.30231 3 
17.218 17.2322 5.74059 3 
18.6572 18.6657 7.17364 3 
20.0917 17.2311 5.73911 3 
17.2212 20.1011 5.7379 3 
20.0939 20.0998 5.73654 3 
21.5294 18.6629 4.29966 3 
24.401 18.6617 4.29842 3 
21.5298 18.6643 7.17223 3 
22.9653 17.2287 5.73668 3 
24.401 18.6637 7.17174 3 
22.9656 20.0986 5.73539 3 
28.708 20.0997 5.73654 3 
27.2726 18.6629 4.29966 3 
28.7102 17.231 5.73916 3 
25.8367 17.2287 5.73668 3 
27.2721 18.6642 7.1723 3 
25.8364 20.0986 5.73538 3 
1.43258 21.5369 4.30246 3 
1.43135 24.4067 4.30155 3 
1.43124 21.5356 7.17252 3 
2.86731 22.9717 5.7377 3 
1.43082 24.4063 7.17256 3 
4.30476 21.5376 4.30315 3 
7.17494 21.5368 4.30251 3 
7.17434 24.4072 4.30246 3 
4.30318 24.4072 4.30231 3 
4.3031 21.5363 7.17329 3 
7.17426 21.5364 7.17336 3 
4.30241 24.4066 7.17322 3 
5.73894 22.972 5.73811 3 
7.17384 24.4068 7.17348 3 
10.0448 21.5365 4.30221 3 
10.0448 24.407 4.30239 3 
10.0448 21.5363 7.17324 3 
8.60957 22.9718 5.73797 3 
10.0448 24.4067 7.17345 3 
11.48 22.9718 5.73792 3 
12.9147 21.5369 4.30249 3 
15.7849 21.5376 4.30315 3 
15.7865 24.4073 4.30236 3 
12.9153 24.4072 4.30248 3 
12.9154 21.5364 7.17329 3 
15.7866 21.5364 7.1732 3 
14.3507 22.9721 5.73812 3 
15.7873 24.4067 7.17316 3 
12.9158 24.4068 7.17347 3 
18.6572 21.5369 4.30252 3 
18.6585 24.4067 4.30167 3 
18.6586 21.5356 7.17245 3 
17.2224 22.9717 5.73772 3 
20.0944 22.9709 5.73683 3 
18.659 24.4063 7.17259 3 
21.5298 21.5355 4.30111 3 
24.401 21.5349 4.3005 3 
24.401 24.406 4.3004 3 
21.5301 24.4062 4.3008 3 
21.5302 21.5348 7.17167 3 
21.5302 24.406 7.17208 3 
22.9656 22.9704 5.73622 3 
24.401 21.5345 7.17138 3 
24.401 24.4058 7.17187 3 
28.7075 22.9709 5.73677 3 
27.2721 21.5354 4.30103 3 
27.2719 24.4062 4.3007 3 
27.2718 21.5347 7.17167 3 
25.8364 22.9705 5.73618 3 
27.2717 24.406 7.17205 3 
1.43139 27.2767 4.3017 3 
2.86755 28.7112 5.73833 3 
1.43098 27.2765 7.17303 3 
2.86681 25.8417 5.73751 3 
4.30302 27.2767 4.30228 3 
7.17426 27.2767 4.3025 3 
5.73906 28.7111 5.73855 3 
4.30257 27.2764 7.17362 3 
5.73838 25.8418 5.73803 3 
7.17394 27.2764 7.17386 3 
11.4799 28.7112 5.73847 3 
8.60975 28.7113 5.73848 3 
10.0449 27.2767 4.30252 3 
8.60945 25.8418 5.73811 3 
10.0448 27.2765 7.17386 3 
11.4802 25.8418 5.73813 3 
14.3507 28.7111 5.7386 3 
12.9155 27.2767 4.30251 3 
15.7867 27.2767 4.30235 3 
12.9157 27.2764 7.17384 3 
14.3513 25.8418 5.73804 3 
15.7871 27.2764 7.17365 3 
17.2222 28.7112 5.73843 3 
20.0941 28.7117 5.73763 3 
18.6584 27.2768 4.3018 3 
17.223 25.8417 5.73756 3 
18.6588 27.2766 7.17306 3 
20.0945 25.8415 5.73687 3 
22.9655 28.7119 5.73709 3 
21.5299 27.2768 4.30106 3 
24.4009 27.2768 4.3007 3 
21.5301 27.2766 7.17255 3 
22.9656 25.8414 5.73638 3 
24.401 27.2766 7.17236 3 
28.7077 28.7116 5.73758 3 
27.272 27.2768 4.30095 3 
25.8365 28.7119 5.73702 3 
28.7073 25.8415 5.7368 3 
25.8364 25.8414 5.73633 3 
27.2718 27.2766 7.17253 3 
2.86811 2.86902 8.61102 3 
1.43107 1.43503 10.045 3 
2.86682 2.87074 11.4805 3 
2.86631 0.000282874 11.4798 3 
5.74011 2.86878 8.61125 3 
4.30276 1.43467 10.0454 3 
7.17426 1.43461 10.0454 3 
5.73853 2.87038 11.4807 3 
5.73784 0.000118013 11.4799 3 
8.61003 2.86964 8.61041 3 
11.4796 2.86963 8.61039 3 
10.0448 1.43477 10.0452 3 
8.60955 2.87047 11.4806 3 
11.4801 2.87047 11.4805 3 
8.60929 8.52585e-05 11.4799 3 
11.4804 7.07319e-05 11.4799 3 
14.3495 2.86884 8.61124 3 
12.9154 1.43459 10.0454 3 
15.7869 1.43471 10.0453 3 
14.3511 2.87043 11.4806 3 
14.3519 0.000155845 11.4798 3 
17.2216 2.86907 8.611 3 
20.0939 2.86972 8.61035 3 
18.6587 1.43508 10.0449 3 
17.2229 2.87083 11.4804 3 
20.0944 2.87128 11.4802 3 
20.0946 0.000486028 11.4795 3 
17.2234 0.000321478 11.4796 3 
22.9655 2.87003 8.61002 3 
21.53 1.43531 10.0447 3 
24.401 1.43539 10.0447 3 
22.9655 2.87152 11.4801 3 
22.9655 0.000554845 11.4795 3 
28.708 2.86967 8.61035 3 
25.8366 2.87002 8.61004 3 
28.7074 2.87123 11.4803 3 
27.2719 1.4353 10.0448 3 
25.8364 2.8715 11.4802 3 
25.8363 0.000521738 11.4795 3 
28.7071 0.000436917 11.4796 3 
2.87027 5.73915 8.61259 3 
1.43182 4.30564 10.0458 3 
1.43285 7.17696 10.046 3 
2.86758 5.74177 11.4808 3 
5.74111 5.74016 8.61194 3 
4.30405 4.30499 10.0464 3 
4.30464 7.17689 10.0465 3 
7.17492 4.30541 10.0461 3 
7.17518 7.17729 10.046 3 
5.73907 5.7416 11.4809 3 
8.61024 5.74112 8.61066 3 
11.4793 5.74116 8.61063 3 
10.0448 4.3057 10.0456 3 
10.0448 7.17752 10.0455 3 
8.60975 5.74174 11.4807 3 
11.4799 5.74177 11.4806 3 
14.3485 5.74024 8.61188 3 
15.7856 4.30507 10.0463 3 
12.9147 4.30543 10.046 3 
12.9145 7.17736 10.0459 3 
15.7851 7.17697 10.0463 3 
14.3506 5.74169 11.4808 3 
17.2195 5.73921 8.61253 3 
20.0932 5.74052 8.61107 3 
18.658 4.30571 10.0457 3 
18.657 7.177 10.0458 3 
17.2222 5.74186 11.4806 3 
20.0941 5.74259 11.4802 3 
22.9653 5.74133 8.61045 3 
21.5298 4.30632 10.0453 3 
21.5295 7.17802 10.0449 3 
22.9655 5.7431 11.4801 3 
24.401 7.17849 10.0447 3 
24.401 4.30655 10.0452 3 
28.7087 5.74048 8.61113 3 
28.7078 5.74255 11.4804 3 
25.8367 5.74135 8.61045 3 
27.2721 4.30629 10.0454 3 
27.2725 7.17802 10.045 3 
25.8365 5.7431 11.4801 3 
2.87072 8.61214 8.61218 3 
2.87024 11.4855 8.61123 3 
1.43297 10.0493 10.0452 3 
2.86792 8.61364 11.4805 3 
2.86787 11.4857 11.48 3 
5.74122 8.61291 8.61167 3 
5.74092 11.4857 8.61104 3 
4.3046 10.0495 10.046 3 
7.17514 10.0496 10.0456 3 
5.73926 8.61354 11.4806 3 
5.73926 11.4857 11.4802 3 
8.61028 8.61337 8.61039 3 
11.4793 8.61342 8.61035 3 
8.61019 11.4857 8.60992 3 
11.4794 11.4857 8.60983 3 
10.0448 10.0496 10.0452 3 
8.60981 8.6136 11.4804 3 
11.4799 8.61364 11.4803 3 
8.6098 11.4857 11.48 3 
11.4799 11.4857 11.4799 3 
14.3484 8.61297 8.61156 3 
14.3488 11.4858 8.61085 3 
12.9145 10.0497 10.0455 3 
15.7851 10.0495 10.0458 3 
14.3504 8.61362 11.4804 3 
14.3505 11.4857 11.48 3 
17.2191 8.61217 8.61207 3 
20.0917 8.61192 8.61065 3 
17.2196 11.4856 8.61104 3 
20.0919 11.4849 8.60927 3 
18.6569 10.0493 10.045 3 
17.2219 8.61369 11.4802 3 
20.0937 8.6141 11.4797 3 
17.2219 11.4857 11.4797 3 
20.0936 11.4857 11.4791 3 
22.965 8.61354 8.60902 3 
22.9644 11.4845 8.6073 3 
21.5289 10.0495 10.0439 3 
22.9653 8.61476 11.4795 3 
22.9652 11.4858 11.4788 3 
24.401 10.05 10.0434 3 
28.71 11.4849 8.6094 3 
28.7103 8.61192 8.61075 3 
28.7082 8.61409 11.48 3 
25.8371 8.61355 8.60905 3 
25.8377 11.4845 8.60735 3 
28.7083 11.4857 11.4794 3 
27.2731 10.0495 10.044 3 
25.8367 8.61475 11.4795 3 
25.8368 11.4858 11.4789 3 
2.86947 14.3583 8.61046 3 
1.43258 12.9216 10.0446 3 
1.43201 15.7934 10.0442 3 
2.86769 14.3576 11.4796 3 
5.74045 14.3582 8.61037 3 
4.30432 12.9219 10.0454 3 
7.17501 12.9218 10.0451 3 
4.30387 15.7939 10.0448 3 
7.17479 15.7938 10.0446 3 
5.73916 14.3577 11.4797 3 
8.61007 14.3578 8.60943 3 
11.4795 14.3578 8.60936 3 
10.0448 12.9217 10.0447 3 
10.0449 15.7937 10.0442 3 
8.6098 14.3577 11.4795 3 
11.48 14.3577 11.4794 3 
14.3492 14.3582 8.61017 3 
12.9147 12.9218 10.045 3 
15.7854 12.9219 10.0451 3 
12.9149 15.7938 10.0445 3 
15.7859 15.7939 10.0446 3 
14.3506 14.3577 11.4795 3 
17.2203 14.3583 8.61021 3 
20.0929 14.3574 8.60855 3 
18.6573 12.9216 10.0443 3 
18.6578 15.7934 10.0439 3 
17.2221 14.3576 11.4792 3 
20.0938 14.3572 11.4787 3 
22.9653 14.3558 8.60671 3 
21.5292 12.921 10.0431 3 
21.5298 15.7924 10.0429 3 
22.9653 14.3567 11.4784 3 
24.401 15.7918 10.0426 3 
24.401 12.9205 10.0425 3 
28.709 14.3573 8.60873 3 
25.8367 14.3558 8.6068 3 
28.708 14.3572 11.479 3 
27.2727 12.921 10.0433 3 
27.2721 15.7923 10.0431 3 
25.8365 14.3566 11.4785 3 
2.86853 17.23 8.60967 3 
2.86733 20.1008 8.6087 3 
1.4314 18.6646 10.0437 3 
2.86739 17.2292 11.4791 3 
2.86688 20.1005 11.4787 3 
5.73985 17.23 8.6097 3 
5.73896 20.1012 8.609 3 
4.30324 18.6654 10.0442 3 
7.1744 18.6654 10.0441 3 
5.73892 17.2296 11.4792 3 
5.73846 20.101 11.4788 3 
8.6099 17.2296 8.60902 3 
11.4798 17.2296 8.60894 3 
8.60962 20.101 8.6087 3 
11.48 20.101 8.60862 3 
10.0449 18.6653 10.0439 3 
8.60974 17.2296 11.479 3 
11.4801 17.2296 11.4789 3 
8.60954 20.1011 11.4787 3 
11.4802 20.1011 11.4786 3 
14.3498 17.2301 8.60954 3 
14.3507 20.1012 8.60887 3 
12.9153 18.6654 10.044 3 
15.7865 18.6654 10.044 3 
14.3509 17.2295 11.479 3 
14.3513 20.101 11.4786 3 
17.2212 17.2301 8.60945 3 
20.0938 17.229 8.60824 3 
17.2224 20.1008 8.60851 3 
20.0944 20.0999 8.60777 3 
18.6584 18.6647 10.0435 3 
17.2224 17.2292 11.4788 3 
20.0942 17.2285 11.4785 3 
17.2229 20.1006 11.4785 3 
20.0944 20.0999 11.4783 3 
22.9655 17.2279 8.60733 3 
22.9656 20.0993 8.60734 3 
21.53 18.6639 10.043 3 
22.9654 17.2279 11.4784 3 
22.9655 20.0994 11.4783 3 
24.401 18.6635 10.0429 3 
28.7073 20.0999 11.4785 3 
28.7077 17.2285 11.4788 3 
28.7075 20.0999 8.60791 3 
28.7081 17.2289 8.60843 3 
25.8365 17.2279 8.60741 3 
25.8364 20.0993 8.60741 3 
27.2719 18.6638 10.0432 3 
25.8364 17.2279 11.4785 3 
25.8363 20.0994 11.4784 3 
2.8665 22.9711 8.60813 3 
1.43055 24.4063 10.0433 3 
1.43084 21.5356 10.0433 3 
2.86636 22.9715 11.4785 3 
5.73811 22.9715 8.60855 3 
7.17349 24.4068 10.0438 3 
4.30247 21.5362 10.0437 3 
7.1739 21.5365 10.0438 3 
5.73793 22.9719 11.4786 3 
4.30194 24.4066 10.0436 3 
8.60931 22.9716 8.60863 3 
11.4803 22.9716 8.60854 3 
10.0448 24.4069 10.0438 3 
10.0448 21.5365 10.0437 3 
8.60931 22.972 11.4786 3 
11.4804 22.972 11.4786 3 
14.3515 22.9716 8.60845 3 
12.9158 21.5365 10.0436 3 
15.7872 21.5362 10.0435 3 
12.9162 24.4068 10.0437 3 
15.7878 24.4066 10.0435 3 
14.3518 22.9719 11.4785 3 
17.2232 22.9711 8.60803 3 
20.0947 22.9706 8.60752 3 
18.6589 21.5356 10.0431 3 
18.6592 24.4063 10.0432 3 
17.2234 22.9714 11.4784 3 
20.0947 22.971 11.4783 3 
22.9656 22.9703 8.60725 3 
22.9655 22.9707 11.4783 3 
24.401 21.5349 10.0428 3 
21.5302 24.406 10.043 3 
24.4009 24.406 10.043 3 
21.5302 21.5351 10.0429 3 
28.7071 22.9706 8.60761 3 
25.8363 22.9703 8.60728 3 
27.2717 21.5351 10.043 3 
28.7071 22.971 11.4785 3 
25.8363 22.9707 11.4784 3 
27.2716 24.406 10.0431 3 
2.86681 28.7115 8.60935 3 
2.86631 25.8415 8.6084 3 
1.43063 27.2768 10.0439 3 
2.86613 25.842 11.4789 3 
5.73851 28.7113 8.60974 3 
5.73787 25.8416 8.60882 3 
5.73761 25.8421 11.479 3 
7.17358 27.2768 10.0444 3 
4.30203 27.2768 10.0442 3 
8.60952 28.7114 8.60965 3 
11.4801 28.7114 8.60963 3 
8.60923 25.8417 8.60897 3 
11.4804 25.8417 8.60894 3 
11.4806 25.8422 11.479 3 
8.60916 25.8422 11.479 3 
10.0448 27.2768 10.0444 3 
14.3511 28.7113 8.60971 3 
14.3518 25.8416 8.6088 3 
14.3521 25.8421 11.4789 3 
15.7877 27.2768 10.0442 3 
12.9161 27.2768 10.0444 3 
20.0945 28.7117 8.60885 3 
17.2229 28.7115 8.60933 3 
17.2234 25.8415 8.60838 3 
20.0947 25.8414 8.60797 3 
17.2236 25.842 11.4788 3 
18.6591 27.2768 10.0439 3 
20.0947 25.8419 11.4787 3 
22.9656 28.7118 8.60861 3 
22.9656 25.8413 8.60774 3 
21.5302 27.2768 10.0437 3 
24.4009 27.2768 10.0437 3 
22.9656 25.8418 11.4787 3 
28.7074 28.7117 8.60889 3 
28.707 25.8418 11.4788 3 
25.8364 28.7118 8.6086 3 
28.7071 25.8414 8.60798 3 
25.8363 25.8413 8.60776 3 
27.2717 27.2768 10.0437 3 
25.8362 25.8418 11.4787 3 
1.43066 1.43615 12.9152 3 
2.86642 2.87167 14.3504 3 
2.86618 0.00119589 14.35 3 
1.43057 1.43679 15.7857 3 
4.3021 1.43582 12.9152 3 
7.17365 1.43563 12.9151 3 
4.30208 1.43649 15.7853 3 
7.17366 1.43628 15.785 3 
5.73801 2.87129 14.3502 3 
5.7377 0.0010391 14.3498 3 
10.0449 1.43562 12.9151 3 
11.4805 2.87118 14.3501 3 
10.045 1.43624 15.7849 3 
8.60936 2.87116 14.3502 3 
11.4806 0.000975351 14.3496 3 
8.60924 0.000965488 14.3497 3 
12.9161 1.43565 12.9151 3 
15.7876 1.43591 12.915 3 
14.3518 2.87134 14.3501 3 
12.9162 1.4363 15.785 3 
15.7877 1.43657 15.7852 3 
14.3521 0.0010715 14.3497 3 
18.6591 1.43624 12.915 3 
18.6591 1.4369 15.7855 3 
17.2233 2.87179 14.3502 3 
20.0946 2.87223 14.3504 3 
20.0946 0.0013864 14.35 3 
17.2235 0.0012443 14.3498 3 
21.5301 1.43644 12.9151 3 
24.4009 1.43649 12.9151 3 
21.5301 1.43712 15.7858 3 
24.4008 1.43718 15.7859 3 
22.9655 2.87242 14.3506 3 
22.9655 0.0014273 14.3502 3 
27.2716 1.43638 12.9152 3 
27.2715 1.43705 15.7859 3 
25.8362 2.8724 14.3506 3 
28.7071 2.8721 14.3506 3 
25.8362 0.00138966 14.3502 3 
28.707 0.00129217 14.3502 3 
1.43098 4.30708 12.9155 3 
1.43146 7.1784 12.9154 3 
2.86686 5.74256 14.3504 3 
1.43086 4.30748 15.7857 3 
1.43138 7.17846 15.7854 3 
4.30306 7.17786 12.9154 3 
4.30261 4.30648 12.9155 3 
7.17402 4.30631 12.9155 3 
7.17428 7.17772 12.9153 3 
5.73847 5.74212 14.3501 3 
4.30329 7.17773 15.7848 3 
7.17402 4.30664 15.7851 3 
4.30256 4.30687 15.7853 3 
7.17449 7.17767 15.7848 3 
11.4802 5.74209 14.3501 3 
10.0449 4.30633 12.9154 3 
10.0449 7.17776 12.9152 3 
8.60955 5.74208 14.3501 3 
10.0449 4.30668 15.7851 3 
10.0449 7.1778 15.7849 3 
12.9157 4.30635 12.9154 3 
15.7871 4.30659 12.9153 3 
12.9154 7.17778 12.9152 3 
15.7867 7.17793 12.9151 3 
14.3513 5.7422 14.35 3 
12.9158 4.3067 15.785 3 
15.7872 4.30699 15.7851 3 
12.9153 7.17771 15.7847 3 
15.7865 7.17778 15.7846 3 
17.2229 5.74266 14.3501 3 
18.6588 4.30715 12.9152 3 
18.6584 7.17845 12.9151 3 
20.0945 5.74333 14.3503 3 
18.6589 4.3076 15.7855 3 
18.6584 7.1785 15.7851 3 
24.4009 4.30779 12.9153 3 
21.5301 4.30763 12.9152 3 
21.5299 7.17913 12.9151 3 
24.401 7.17943 12.9151 3 
21.5301 4.30811 15.7859 3 
21.5299 7.17935 15.7857 3 
24.4009 7.17969 15.7861 3 
24.4008 4.30827 15.7861 3 
22.9655 5.74378 14.3505 3 
27.2718 4.30759 12.9154 3 
27.272 7.17912 12.9152 3 
27.2716 4.30804 15.786 3 
27.2718 7.17934 15.7859 3 
28.7073 5.74329 14.3506 3 
25.8363 5.74377 14.3506 3 
1.43168 10.05 12.915 3 
2.8677 11.4856 14.3497 3 
2.86737 8.61393 14.35 3 
1.43202 10.0498 15.785 3 
4.3033 10.0497 12.915 3 
7.17444 10.0496 12.9149 3 
4.30395 10.0493 15.7842 3 
7.17488 10.0493 15.7843 3 
5.73891 8.61358 14.3498 3 
5.7392 11.4855 14.3493 3 
10.0449 10.0496 12.9149 3 
8.60972 8.61358 14.3498 3 
11.48 11.4855 14.3493 3 
8.60985 11.4855 14.3494 3 
10.0449 10.0494 15.7845 3 
11.4801 8.6136 14.3498 3 
12.9153 10.0496 12.9148 3 
15.7865 10.0497 12.9147 3 
14.3507 11.4854 14.3491 3 
14.3509 8.61361 14.3496 3 
12.915 10.0493 15.7842 3 
15.7859 10.0492 15.784 3 
18.6581 10.05 12.9147 3 
20.0942 8.6147 14.3502 3 
20.0938 11.4861 14.3499 3 
17.2221 11.4856 14.3494 3 
18.6577 10.0498 15.7848 3 
17.2224 8.61393 14.3497 3 
21.5296 10.0505 12.9147 3 
24.401 10.0508 12.9148 3 
21.5297 10.0509 15.7859 3 
24.4009 10.0514 15.7864 3 
22.9652 11.4866 14.3505 3 
22.9655 8.61534 14.3505 3 
28.7076 8.61469 14.3505 3 
25.8365 11.4866 14.3506 3 
27.2722 10.0505 12.915 3 
28.708 11.4861 14.3502 3 
27.272 10.0509 15.7861 3 
25.8364 8.61533 14.3506 3 
1.43177 12.9216 12.9146 3 
1.43172 15.7932 12.9142 3 
2.86793 14.3575 14.3492 3 
1.43264 12.9216 15.7846 3 
1.43303 15.794 15.7839 3 
4.30336 12.9216 12.9146 3 
7.1745 12.9216 12.9145 3 
4.30334 15.7935 12.9141 3 
7.1745 15.7936 12.914 3 
4.30475 15.7938 15.7831 3 
4.30444 12.9213 15.7837 3 
7.17519 12.9214 15.7838 3 
7.17539 15.7936 15.7833 3 
5.73938 14.3575 14.3489 3 
8.60993 14.3575 14.3489 3 
10.0449 12.9216 12.9144 3 
10.0449 15.7936 12.9139 3 
11.48 14.3575 14.3488 3 
10.045 12.9214 15.7841 3 
10.045 15.7936 15.7836 3 
12.9153 12.9216 12.9143 3 
15.7865 12.9216 12.9143 3 
12.9154 15.7936 12.9138 3 
15.7865 15.7935 12.9139 3 
14.3505 14.3575 14.3486 3 
12.9148 12.9213 15.7837 3 
15.7855 12.9213 15.7835 3 
12.9146 15.7936 15.7832 3 
15.7851 15.7937 15.7829 3 
18.658 12.9216 12.9143 3 
18.6581 15.7932 12.9139 3 
20.0935 14.3575 14.3496 3 
17.2219 14.3575 14.3489 3 
18.6572 12.9216 15.7844 3 
18.6568 15.7939 15.7837 3 
21.5295 12.9216 12.9144 3 
21.5296 15.7927 12.914 3 
24.4009 12.9216 12.9146 3 
24.4009 15.7924 12.9142 3 
21.529 12.9222 15.7857 3 
24.4008 12.9227 15.7865 3 
21.5287 15.7937 15.785 3 
24.4008 15.7933 15.7856 3 
22.965 14.3575 14.3502 3 
27.2723 12.9217 12.9146 3 
27.2722 15.7927 12.9143 3 
28.7083 14.3575 14.3499 3 
25.8367 14.3575 14.3503 3 
27.2727 12.9223 15.7859 3 
27.273 15.7938 15.7851 3 
2.868 17.2296 14.3486 3 
1.43147 18.6648 12.9138 3 
2.86767 20.1014 14.3482 3 
1.43292 18.6663 15.7831 3 
4.30482 18.6664 15.7825 3 
4.30313 18.6653 12.9137 3 
7.17438 18.6655 12.9136 3 
5.73922 20.1016 14.348 3 
7.17544 18.666 15.7828 3 
5.73946 17.2297 14.3483 3 
11.48 17.2296 14.3484 3 
10.045 18.6655 12.9135 3 
11.4801 20.1015 14.3481 3 
8.60989 20.1015 14.3481 3 
10.045 18.6658 15.7832 3 
8.60999 17.2296 14.3484 3 
12.9155 18.6654 12.9135 3 
15.7867 18.6653 12.9134 3 
14.3507 20.1016 14.3479 3 
14.3505 17.2296 14.3482 3 
12.9146 18.6659 15.7827 3 
15.7851 18.6663 15.7823 3 
18.6583 18.6648 12.9135 3 
20.094 20.1006 14.3485 3 
20.0935 17.2291 14.349 3 
18.6568 18.6662 15.7829 3 
17.2221 20.1014 14.348 3 
17.2218 17.2295 14.3484 3 
21.5298 18.6641 12.9137 3 
24.4009 18.6638 12.9138 3 
21.5292 18.6652 15.784 3 
24.4008 18.6647 15.7843 3 
22.9653 20.1001 14.3488 3 
22.9651 17.2285 14.3495 3 
27.272 18.6641 12.9139 3 
28.7078 20.1007 14.3487 3 
27.2724 18.6653 15.7841 3 
25.8364 20.1001 14.3489 3 
28.7082 17.2292 14.3492 3 
25.8366 17.2285 14.3495 3 
1.43102 21.5361 12.9136 3 
1.43067 24.4071 12.9138 3 
2.86687 22.9725 14.3484 3 
1.43187 21.5376 15.7831 3 
1.43112 24.4082 15.7839 3 
4.30287 24.4086 15.7835 3 
4.30264 21.5367 12.9134 3 
7.17405 21.5369 12.9134 3 
4.30206 24.4074 12.9137 3 
7.17365 24.4076 12.9136 3 
4.30421 21.5383 15.7824 3 
7.17513 21.5379 15.7827 3 
7.17441 24.4087 15.7833 3 
5.73861 22.9729 14.3482 3 
10.0449 24.4076 12.9136 3 
10.0449 21.5369 12.9133 3 
10.045 21.5376 15.7831 3 
10.045 24.4085 15.7835 3 
8.60967 22.9728 14.3482 3 
11.4802 22.9728 14.3482 3 
15.7877 24.4073 12.9136 3 
12.9158 21.5369 12.9133 3 
15.7871 21.5366 12.9132 3 
12.9161 24.4076 12.9135 3 
14.3512 22.9728 14.348 3 
12.9149 21.5378 15.7827 3 
15.7856 21.5382 15.7823 3 
15.7869 24.4085 15.7834 3 
12.9155 24.4086 15.7833 3 
18.6587 21.536 12.9134 3 
18.6591 24.407 12.9136 3 
18.6579 21.5375 15.783 3 
18.6586 24.4081 15.7838 3 
20.0943 22.9719 14.3485 3 
17.2229 22.9724 14.3482 3 
21.53 21.5355 12.9135 3 
21.5301 24.4068 12.9137 3 
24.4008 24.4067 12.9138 3 
24.4009 21.5354 12.9136 3 
22.9654 22.9716 14.3487 3 
21.5296 21.5368 15.7835 3 
24.4008 21.5366 15.7837 3 
21.5298 24.4078 15.7841 3 
24.4008 24.4078 15.7842 3 
27.2716 24.4068 12.9138 3 
27.2718 21.5356 12.9136 3 
28.7074 22.972 14.3487 3 
25.8363 22.9717 14.3488 3 
27.272 21.5369 15.7836 3 
27.2718 24.4079 15.7842 3 
1.43054 27.2776 12.9145 3 
2.86634 25.8429 14.3492 3 
1.43067 27.2784 15.785 3 
7.17343 27.2776 12.9144 3 
4.30184 27.2776 12.9144 3 
5.73791 25.8431 14.3489 3 
4.30215 27.2784 15.7846 3 
7.17376 27.2784 15.7843 3 
10.0449 27.2776 12.9143 3 
11.4805 25.8431 14.3488 3 
10.045 27.2784 15.7842 3 
8.60938 25.8431 14.3488 3 
15.7879 27.2776 12.9143 3 
12.9164 27.2776 12.9143 3 
12.9162 27.2784 15.7843 3 
15.7877 27.2784 15.7845 3 
14.3519 25.843 14.3488 3 
18.6592 27.2776 12.9143 3 
18.659 27.2784 15.7848 3 
20.0946 25.8427 14.3492 3 
17.2234 25.8429 14.349 3 
24.4008 27.2776 12.9144 3 
21.5301 27.2776 12.9144 3 
21.53 27.2783 15.7851 3 
24.4007 27.2783 15.7852 3 
22.9654 25.8426 14.3493 3 
27.2716 27.2776 12.9145 3 
28.7071 25.8427 14.3494 3 
27.2715 27.2783 15.7852 3 
25.8362 25.8426 14.3494 3 
1.43089 1.43681 18.6563 3 