ITEM: TIMESTEP
25040
ITEM: NUMBER OF ATOMS
18
ITEM: BOX BOUNDS pp pp pp
0.0000000000000000e+00 2.8712000000000000e+01
0.0000000000000000e+00 2.8712000000000000e+01
0.0000000000000000e+00 2.8712000000000000e+01
ITEM: ATOMS x y z c_cna 
22.5633 11.3355 0.144521 5 
24.401 10.1013 1.37867 5 
26.2387 11.3356 0.144334 5 
24.401 12.917 1.53273 5 
24.4008 15.7419 24.4501 5 
24.4009 12.9262 24.296 5 
24.401 9.94723 27.275 5 
22.9785 11.5228 25.8717 5 
24.401 12.1726 28.0194 5 
25.8233 11.5228 25.8716 5 
22.5632 14.5076 25.6844 5 
21.5668 12.9216 27.2705 5 
24.401 13.6706 26.5213 5 
24.4009 15.896 27.2657 5 
22.9785 14.3204 28.6692 5 
25.8234 14.3204 28.6691 5 
27.2351 12.9216 27.2703 5 
26.2385 14.5077 25.6843 5 
ITEM: TIMESTEP
25041
ITEM: NUMBER OF ATOMS
18
ITEM: BOX BOUNDS pp pp pp
0.0000000000000000e+00 2.8712000000000000e+01
0.0000000000000000e+00 2.8712000000000000e+01
0.0000000000000000e+00 2.8712000000000000e+01
ITEM: ATOMS x y z c_cna 
22.5633 11.3355 0.144521 5 
24.401 10.1013 1.37867 5 
26.2387 11.3356 0.144334 5 
24.401 12.917 1.53273 5 
24.4008 15.7419 24.4501 5 
24.4009 12.9262 24.296 5 
24.401 9.94723 27.275 5 
22.9785 11.5228 25.8717 5 
24.401 12.1726 28.0194 5 
25.8233 11.5228 25.8716 5 
22.5632 14.5076 25.6844 5 
21.5668 12.9216 27.2705 5 
24.401 13.6706 26.5213 5 
24.4009 15.896 27.2657 5 
22.9785 14.3204 28.6692 5 
25.8234 14.3204 28.6691 5 
27.2351 12.9216 27.2703 5 
26.2385 14.5077 25.6843 5 
