ITEM: TIMESTEP
25000
ITEM: NUMBER OF ATOMS
2001
ITEM: BOX BOUNDS pp pp pp
0.0000000000000000e+00 2.8712000000000000e+01
0.0000000000000000e+00 2.8712000000000000e+01
0.0000000000000000e+00 2.8712000000000000e+01
ITEM: ATOMS x y z 
1.44747 1.55128 1.2593 
3.05981 2.68016 2.79423 
0.210341 3.01942 2.73393 
4.27632 1.1923 1.42707 
7.11643 1.29398 1.26766 
5.58492 2.67568 2.71628 
10.0106 1.41025 1.66388 
8.52842 2.72212 2.85964 
11.4978 2.82096 2.93259 
11.5607 0.0191613 2.82631 
12.9836 1.42965 1.49451 
15.7108 1.42901 1.69492 
14.3704 2.78956 3.10583 
18.5772 1.21869 1.40175 
17.2094 2.81522 2.98068 
20.1438 2.86676 2.86638 
17.3055 2.78773 0.144687 
20.1704 0.0985634 2.98278 
21.466 1.57553 1.36197 
24.5297 1.51885 1.45378 
22.931 2.97664 2.78577 
22.8353 0.0558248 3.02655 
23.0249 2.86491 0.108487 
27.4024 1.3897 1.4622 
25.9714 2.92419 2.88053 
26.0381 0.0632678 2.73187 
25.8427 2.99833 0.127661 
1.45657 4.17713 1.18441 
1.34831 7.11212 1.40004 
2.72639 5.74899 2.84566 
0.110993 5.69627 2.83019 
2.90097 5.77529 0.0495334 
4.39993 4.32112 1.24645 
4.33636 4.29131 4.09336 
7.27895 4.27352 1.59935 
4.37088 7.16224 1.34206 
7.22426 7.17276 1.53413 
5.64685 5.55861 2.85214 
10.1119 4.30134 1.54548 
10.0277 7.16634 1.53614 
8.44075 5.79098 2.96057 
11.3957 5.70488 2.85413 
11.6093 5.84642 0.0356705 
8.81041 5.77955 0.0305052 
13.0105 4.29858 1.26268 
15.9258 4.17811 1.48854 
12.9866 6.97418 1.48908 
15.9685 6.96762 1.70046 
14.5202 5.45517 2.76345 
18.8275 4.14801 1.44849 
18.5863 7.08659 1.30874 
17.4644 5.42012 2.85483 
20.0541 5.71806 2.85283 
24.3556 4.25344 1.47959 
21.5822 4.41105 1.55048 
21.619 7.18633 1.52385 
23.1104 5.7464 2.8456 
24.5678 7.11669 1.35764 
27.5382 4.2968 1.4626 
27.1965 7.08446 1.35136 
25.9541 5.71121 2.94985 
25.8188 5.67567 0.0412956 
1.58362 9.98961 1.54159 
2.81918 8.4329 2.80844 
2.84112 11.5375 2.77993 
0.0395238 8.51016 2.95158 
4.21386 9.9558 1.57804 
7.14433 9.983 1.25686 
5.66163 8.60139 2.69318 
5.88973 11.3475 2.71897 
10.1393 10.0865 1.20179 
8.3984 8.75166 3.02542 
11.6036 8.56385 2.93656 
8.76988 11.4241 2.62613 
11.5143 11.4155 2.9904 
8.56581 8.37203 0.0897428 
11.4239 11.5378 0.0508811 
12.9169 10.156 1.59611 
15.9098 10.0051 1.52918 
14.3468 8.51958 2.92711 
14.5166 11.3135 2.81794 
14.4377 11.5475 0.184546 
14.3021 8.76874 0.199659 
18.6814 10.0232 1.37265 
17.2316 8.4721 3.06994 
19.9947 8.49101 2.85205 
17.4025 11.5627 2.88949 
20.0593 11.4945 2.98202 
19.9972 8.68815 0.0585653 
17.0973 8.74479 0.00137711 
22.6372 11.421 0.26231 
21.4078 10.0806 1.62211 
24.3937 10.1369 1.36456 
22.9577 8.63036 2.85749 
22.9256 11.6819 2.76549 
22.9626 8.49589 0.207139 
28.634 11.4702 2.75259 
27.3829 10.006 1.55042 
25.8796 8.5499 2.76338 
25.8505 11.5574 2.83572 
26.2486 11.612 0.412914 
26.052 8.64739 0.0593021 
1.48413 12.9976 1.36197 
1.56721 15.6735 1.16666 
2.94216 14.3315 2.79394 
4.04631 15.7778 1.34193 
0.277372 14.3935 2.75529 
4.28639 12.9081 1.45209 
7.1867 12.9785 1.16892 
7.0729 15.8512 1.3383 
5.86881 14.2898 2.833 
10.0909 12.8702 1.32474 
9.97821 15.895 1.30358 
8.77396 14.3699 2.70438 
11.4816 14.4223 2.71291 
11.4082 14.3927 0.00815356 
13.0213 12.9291 1.47123 
15.8249 13.0077 1.46409 
12.9362 15.7978 1.41181 
15.7263 15.866 1.33795 
14.3745 14.325 3.02756 
18.6646 12.7609 1.41779 
18.5933 15.5923 1.54234 
17.2574 14.3885 2.92222 
20.1989 14.3527 2.8837 
17.0226 14.268 0.136541 
21.4963 12.9859 1.57217 
24.3898 12.7761 1.32799 
21.5306 15.686 1.42196 
23.1179 14.329 2.89579 
24.5765 15.7265 1.6855 
25.8343 14.3203 0.0614242 
27.4179 13.1798 1.44543 
27.399 15.8656 1.3621 
26.0227 14.3207 2.93162 
0.111651 20.2505 0.12381 
1.50681 18.5124 1.46417 
2.94682 17.1489 2.89064 
3.08595 20.0338 2.87448 
0.0704965 20.0195 2.94568 
0.0664811 17.1822 2.75479 
4.42381 18.5701 1.41518 
7.13213 18.6868 1.4099 
5.65387 17.1027 2.86173 
5.66041 19.8633 2.8869 
5.9218 20.15 0.0467309 
10.0846 18.5455 1.39315 
8.5334 17.1399 2.58355 
11.467 17.1618 2.71938 
8.49989 20.1575 2.75822 
11.546 20.0801 2.92701 
12.8517 18.7665 1.34181 
15.7795 18.8137 1.56491 
14.3471 17.266 2.8723 
14.3413 19.84 2.947 
14.272 20.0826 0.00225433 
14.3551 17.252 0.130676 
18.6231 18.4491 1.35657 
17.2332 17.1867 2.89489 
20.1295 17.1628 2.89712 
17.3968 19.9261 2.8775 
20.2456 20.1183 2.92358 
17.2941 20.0388 0.167772 
20.3289 20.1876 0.176294 
20.0724 17.068 0.165099 
23.0802 17.0164 0.0128032 
21.641 18.6217 1.35329 
24.38 18.6572 1.44836 
23.0429 17.1556 2.88488 
23.037 20.0504 2.9858 
22.9073 20.091 0.0593889 
25.8931 19.9153 0.0351103 
27.4335 18.5897 1.33299 
25.9794 17.4316 2.90496 
25.8843 19.9323 2.9078 
1.43756 21.4975 1.29169 
1.34552 24.4073 1.41594 
2.72823 22.9289 2.72883 
0.0814673 22.9324 2.81393 
4.49464 21.4201 4.0971 
4.36274 24.4273 1.33147 
4.40893 21.6146 1.42057 
7.24029 21.5544 1.41212 
5.83247 22.9668 2.84783 
7.15622 24.4364 1.64538 
5.83644 23.0135 0.00394438 
10.1097 21.6596 1.48599 
8.61228 22.9107 3.06704 
11.4659 22.9066 2.82474 
9.87206 24.5064 1.6046 
12.9278 21.5083 1.5359 
15.7103 21.472 1.53769 
14.302 22.9949 2.95468 
12.8123 24.5066 1.49793 
15.7455 24.2542 1.42047 
14.3224 23.1155 0.00512798 
20.2107 23.121 0.0376279 
18.6609 21.4526 1.44285 
18.4906 24.3893 1.3318 
17.1933 23.126 2.93026 
20.0886 23.0564 2.91559 
23.0625 22.9238 0.0751825 
21.4448 21.6311 1.70848 
24.3467 21.4504 1.53124 
21.6496 24.4228 1.56521 
23.0028 22.8827 3.06317 
24.3668 24.4131 1.40231 
27.1998 21.5281 1.52924 
25.6522 22.9432 2.94272 
27.0372 24.35 1.59857 
2.92849 28.4782 2.85963 
1.34487 27.2461 1.50099 
2.69057 25.8349 2.81364 
0.239164 28.7026 2.8574 
5.68215 28.4607 2.94826 
4.15167 27.0114 1.31669 
7.03841 27.1496 1.46799 
5.54935 25.694 2.7809 
5.79743 25.8348 0.0720181 
8.46416 28.3664 2.98774 
11.4889 28.6332 0.164427 
10.0471 27.4267 1.45475 
8.53685 25.9173 3.14294 
11.3774 25.7403 2.88606 
11.3644 25.903 0.105497 
8.50373 25.9407 0.107006 
8.4905 28.5164 0.0135378 
14.445 28.6716 2.92183 
12.9423 27.3168 1.53201 
15.734 27.1774 1.81149 
14.1283 25.864 2.98768 
14.3399 25.9541 0.315209 
14.5117 28.5097 0.252689 
17.1132 28.6702 3.20999 
17.0156 28.491 0.14919 
18.8154 27.1836 1.57397 
17.2969 25.8074 3.07464 
20.0405 25.7087 3.02497 
20.113 28.6522 0.201538 
17.0705 25.9926 0.191837 
21.6595 27.3474 1.61726 
22.9943 25.6961 2.93705 
24.4195 27.2919 1.56266 
22.8566 25.8966 0.0241149 
28.5705 25.7891 2.86131 
27.4008 27.3426 1.49347 
25.7789 25.8317 3.06262 
28.6771 25.6269 0.0683833 
25.8787 25.8586 0.0552626 
1.47779 1.30893 4.47403 
1.4215 1.52283 6.95483 
2.88019 2.90945 5.55942 
4.27861 1.3689 4.42249 
7.01437 1.38324 4.28792 
4.1605 1.58932 7.16359 
7.17282 1.48918 7.1494 
5.62698 3.12395 5.64113 
9.96509 1.41827 4.20104 
10.1731 1.44507 7.18001 
8.39991 2.7348 5.81748 
11.174 3.03273 5.70423 
11.3689 0.0385043 5.73152 
8.56911 0.025287 5.71242 
12.9023 1.48249 4.43295 
15.82 1.50674 4.51119 
12.8653 1.43349 7.15493 
15.872 1.49739 7.23222 
14.4735 2.80242 5.88515 
14.2675 0.0111738 6.09453 
18.6162 1.43275 4.33915 
18.7476 1.44486 7.2585 
17.2573 2.89344 5.95265 
20.2281 2.95141 5.69564 
17.1452 0.0491331 5.82254 
19.9169 0.0304477 5.91016 
18.6919 4.05653 7.15944 
21.6257 1.45198 4.27722 
24.5271 1.58216 4.28663 
21.5453 1.53411 7.29833 
24.4047 1.54896 7.09008 
22.9782 2.94336 5.68488 
22.8984 0.0471784 5.73923 
27.23 1.39681 4.31125 
28.6369 2.85354 5.59467 
27.2936 1.50566 7.22863 
26.0705 2.95391 5.90297 
1.63496 4.34103 4.32893 
1.41046 7.12858 4.24367 
1.36399 4.24858 6.98757 
1.32579 7.2224 7.15604 
2.86628 5.7656 5.7239 
0.0251698 5.78787 5.7143 
4.30446 7.29832 4.30494 
7.30004 4.2782 4.27699 
7.14373 7.22958 4.214 
4.35022 7.28816 7.02731 
4.37368 4.29642 6.99764 
7.13144 4.35841 7.2882 
5.78381 5.85906 5.61792 
6.98534 7.15254 7.17704 
9.79851 4.32661 4.28842 
10.0788 7.01103 4.47936 
9.90704 4.38334 7.19317 
8.28837 5.6435 5.8305 
9.83334 7.11662 7.11284 
11.3888 5.494 5.74393 
15.8751 4.24714 4.465 
12.7628 4.36283 4.15973 
12.8442 7.08356 4.26545 
15.7843 6.99258 4.32944 
12.7056 4.23581 7.28908 
16.0612 4.54646 7.2715 
12.8333 7.18743 6.99027 
14.2935 5.40553 5.79241 
15.8264 7.05681 7.22957 
18.8008 4.23911 4.49372 
18.7551 7.00142 4.31683 
17.3898 5.73028 5.86467 
18.6771 7.2769 7.27261 
20.2032 5.73795 5.77529 
21.5892 4.37299 4.19042 
24.4089 4.57104 4.39095 
21.6022 7.15884 4.31593 
24.2837 7.23116 4.35596 
21.4938 4.2993 7.39116 
21.5257 7.26158 7.3713 
22.6843 5.82897 6.05096 
24.4303 6.97229 7.03557 
24.3035 4.27073 7.09794 
27.3081 4.29998 4.36657 
27.3514 7.22577 4.37578 
27.3393 4.26835 7.31979 
26.1651 5.70023 5.75145 
27.3542 7.0021 7.2366 
1.44756 10.1747 4.3371 
1.43309 10.1042 7.07285 
2.88127 8.68571 5.73565 
2.91335 11.4306 5.78782 
0.111826 8.64023 5.78172 
0.110722 11.5958 5.63881 
4.30784 10.0814 4.18979 
6.98112 10.0443 4.43737 
4.21754 10.0329 7.15885 
5.76486 8.68587 5.75002 
7.07331 10.1225 7.30929 
5.63594 11.4608 5.58257 
9.86028 9.9563 4.29898 
8.45187 8.54645 5.77938 
10.0771 10.0119 7.30667 
11.3054 8.794 5.77408 
8.75752 11.3394 5.7474 
11.3553 11.3899 5.62782 
13.0697 10.064 4.26597 
15.8338 10.1065 4.30829 
13.0095 9.99292 7.03606 
14.6188 8.45502 5.7649 
15.8126 10.0925 7.26287 
14.2365 11.517 5.67788 
18.6762 9.82193 4.27762 
17.2472 8.61022 5.68531 
18.8042 10.1305 7.08428 
20.2088 8.48303 5.84872 
17.2214 11.4824 5.66865 
20.1051 11.4377 5.6622 
21.6227 9.86464 4.16071 
24.5593 10.1837 4.19471 
21.7199 10.1149 7.21527 
22.9763 8.58395 5.78045 
23.2088 11.571 5.71625 
24.3712 9.92524 7.36896 
27.2296 9.90122 4.37513 
25.7104 8.47131 5.70656 
27.2298 9.94779 7.09086 
26.039 11.5123 5.60759 
1.66348 12.9498 4.28651 
1.49682 15.7873 4.31937 
1.63426 13.0425 7.13111 
1.66096 15.7836 7.29028 
2.96181 14.4247 5.64227 
0.018709 14.4826 5.92986 
4.44642 12.8444 4.23595 
4.5252 15.6631 4.12795 
7.42947 12.7431 4.13669 
7.35524 15.8279 4.24298 
4.31508 12.9502 6.9435 
7.01628 12.7994 7.06772 
4.21088 15.7848 7.21399 
5.78073 14.2266 5.63128 
6.90591 15.8452 7.16394 
10.2358 12.9481 4.23474 
9.84474 15.7007 4.27537 
9.76469 12.7493 7.20541 
8.68787 14.2262 5.72552 
10.1496 15.6335 6.98652 
11.5543 14.3261 5.50102 
8.46254 14.4426 8.17577 
13.1532 12.7686 4.24918 
15.7956 12.7921 4.44252 
12.8889 15.8285 4.23292 
15.9017 15.6483 4.16979 
12.8483 13.0648 7.00915 
15.8268 12.9037 7.06049 
12.9701 15.9303 7.18538 
14.3025 14.2915 5.73331 
15.6025 15.7365 7.06497 
18.7363 12.8411 4.22138 
18.785 15.9069 4.42096 
18.791 12.9462 7.22965 
17.2712 14.315 5.52537 
18.7863 15.8366 7.04766 
20.2544 14.4359 5.72412 
21.5561 12.9879 4.39962 
21.7416 15.6598 4.18944 
24.5372 13.119 4.33299 
21.5946 12.8417 7.03004 
21.704 15.7594 7.03654 
23.0888 14.1947 5.65675 
24.5795 16.1467 7.31554 
24.7978 15.8886 4.29906 
27.2492 12.9192 4.31432 
27.4418 15.8098 4.28712 
24.6483 13.0604 7.34213 
27.4073 12.9473 7.07612 
25.8281 14.3923 5.88341 
27.2902 15.8874 7.33788 
1.5268 18.6586 4.2054 
1.30598 18.6816 7.23575 
2.81505 17.162 5.81484 
2.71346 20.1087 5.5808 
0.0119265 20.0213 5.80274 
4.08061 18.8572 7.19437 
4.29907 18.5878 4.35668 
7.23646 18.4922 4.12908 
5.57442 17.0106 5.72488 
7.07682 18.6501 7.12337 
5.70116 19.95 5.58718 
10.0308 18.4434 4.2006 
8.53921 17.2335 5.91379 
9.87008 18.733 7.17448 
11.4563 17.1581 5.6192 
8.65375 19.9865 5.58441 
11.504 19.9688 5.84081 
12.7746 18.7206 4.32937 
15.825 18.5547 4.38058 
12.9368 18.7942 7.28017 
14.2928 17.2393 5.64981 
15.6588 18.7088 7.13714 
14.3897 20.1082 5.82165 
18.6514 18.7222 4.29681 
17.3468 17.0813 5.76576 
18.5603 18.5493 7.01817 
20.2235 17.3169 5.75164 
17.2216 20.1195 5.47511 
20.1369 20.0696 5.69706 
21.5433 18.641 4.21297 
24.4283 18.677 4.42322 
21.6764 18.7448 7.02951 
23.1663 17.2244 5.74889 
24.3873 18.8622 7.16087 
22.8764 20.2231 5.62347 
27.4519 18.7559 4.32807 
28.5561 17.0402 5.87496 
25.8987 17.3925 5.75149 
27.2437 18.7601 7.17241 
25.8087 20.1733 5.76113 
1.54538 21.5351 4.2036 
1.42667 24.3829 4.36106 
1.49431 21.5012 7.17302 
2.97422 22.8348 5.7906 
1.26114 24.3674 7.08535 
0.0244739 22.7893 5.87628 
7.19426 21.4176 4.26514 
7.13331 24.5068 4.38384 
4.1845 24.378 4.38937 
4.43767 21.439 7.10152 
7.28289 21.3692 7.0397 
4.13209 24.315 7.29267 
5.68956 23.0144 5.77019 
7.08883 24.3693 7.20647 
10.0844 21.2697 4.48205 
10.0631 24.4466 4.51247 
10.0121 21.5959 7.19011 
8.57608 22.8732 5.77547 
9.92006 24.2509 7.27527 
11.4514 22.9312 5.72755 
12.8632 21.4924 4.42828 
15.9631 21.4453 4.11837 
15.954 24.269 4.41137 
12.6798 24.4346 4.51794 
12.8412 21.5844 7.27594 
15.7682 21.4718 6.95708 
14.4225 22.7941 5.58262 
15.6688 24.3616 7.1739 
12.8318 24.3376 7.20631 
18.7017 21.6501 4.32298 
18.5727 24.3981 4.46559 
18.5844 21.5286 7.20954 
17.222 22.968 5.82669 
20.1583 23.1834 5.7954 
18.5997 24.3135 7.23237 
21.355 21.7132 4.40697 
24.4257 21.4973 4.30757 
24.4015 24.2685 4.36078 
21.5267 24.3882 4.20694 
21.3965 21.4685 7.12628 
21.612 24.469 7.21797 
22.9953 22.9966 5.77691 
24.4021 21.3017 7.28985 
24.3497 24.4453 7.39453 
27.5046 21.7145 4.33023 
27.5282 24.3359 4.41511 
27.1985 21.4328 7.1079 
25.8013 22.9843 5.80048 
27.1718 24.2775 7.36222 
1.36692 27.258 4.35277 
0.00172676 28.6504 5.9257 
2.97715 28.5551 5.64703 
1.36224 27.2244 7.11595 
2.78163 25.8352 5.93184 
4.24242 27.2525 4.32767 
6.87075 27.2352 4.47411 
5.69297 28.7088 5.86403 
4.42338 27.1908 7.22402 
5.70395 25.7615 5.80494 
7.14282 27.3649 7.23747 
10.1257 27.2011 4.47907 
8.62174 25.9706 5.96933 
10.0077 27.32 7.28292 
11.2987 25.7673 6.02327 
12.8487 27.302 4.25988 
15.7551 27.02 4.43516 
12.8524 27.2343 7.194 
14.2233 25.8097 5.86021 
15.6763 27.1994 7.30307 
18.7108 27.2883 4.38251 
17.167 25.7074 5.9335 
18.5979 27.3155 7.29801 
20.0885 25.8596 5.90934 
21.6306 27.2121 4.32797 
24.5303 27.459 4.39856 
21.6152 27.5117 7.22204 
22.9598 25.9742 5.82297 
24.5256 27.2523 7.29952 
27.389 27.3592 4.35006 
25.8666 28.6754 5.58244 
28.5794 25.9397 5.85994 
25.9762 25.842 5.74736 
27.1836 27.3663 7.17411 
2.85502 3.03 8.64361 
0.199995 2.834 8.68425 
2.86847 0.101356 8.39179 
1.475 1.3783 9.96048 
2.93802 3.05069 11.5068 
5.62725 2.87499 8.46612 
5.59542 0.035167 8.75928 
4.2999 1.55908 10.0847 
7.12133 1.49236 10.0595 
5.6365 2.91243 11.4798 
5.55688 0.00113064 11.5597 
8.63615 2.87659 8.66203 
11.5112 2.77353 8.60724 
8.4468 0.134119 8.63089 
9.94887 1.46739 10.0464 
8.63089 2.97506 11.4413 
11.3981 2.88553 11.2381 
8.58869 0.0603409 11.4226 
14.5619 2.93373 8.53221 
14.5156 0.218294 8.47009 
12.8261 1.29431 10.0243 
15.8238 1.54567 10.1403 
14.3118 2.8148 11.5474 
17.3888 2.7881 8.68254 
20.1323 2.83998 8.66473 
18.7561 1.21925 10.022 
17.3286 2.89266 11.4234 
20.0749 2.71756 11.697 
23.064 2.88409 8.61457 
22.9396 0.108509 8.74847 
21.4381 1.32175 10.2612 
24.5772 1.33844 10.024 
23.0662 2.75445 11.5865 
25.7862 3.09245 8.70783 
28.5683 3.0576 11.5326 
27.2961 1.41492 9.9419 
25.6871 3.02064 11.526 
2.81323 5.84144 8.59743 
0.275844 5.59709 8.63835 
1.42394 4.35871 10.2677 
1.38309 7.25688 10.09 
2.92469 5.68846 11.5547 
0.0307274 5.92 11.3817 
5.62835 5.69787 8.48777 
4.34816 4.43716 9.87447 
4.25747 7.22164 10.0511 
7.10967 4.44412 10.2563 
7.02806 7.13787 10.0663 
5.82957 5.85865 11.5129 
8.47126 5.70236 8.77558 
11.4311 5.87215 8.55254 
9.94491 4.18977 9.87509 
9.96152 7.16838 9.92097 
8.67383 5.76844 11.3523 
11.3032 5.79839 11.2402 
14.5084 5.81736 8.49353 
15.9494 4.22529 10.1591 
12.9092 4.28022 9.88582 
12.9348 7.14233 9.88229 
15.9132 7.11817 10.0136 
14.3823 5.75514 11.1861 
17.3937 5.68927 8.74862 
20.0281 5.90753 8.57346 
18.9168 4.34452 10.0636 
18.6216 7.31721 10.2299 
17.2421 5.80466 11.4586 
20.015 5.81588 11.5308 
22.8557 5.88681 8.72053 
21.459 4.30284 10.1564 
21.4757 7.26818 10.128 
22.9312 5.7712 11.6594 
24.3481 7.27615 10.0997 
24.3076 4.45044 10.0858 
25.9098 5.94634 8.56593 
27.5199 4.511 10.069 
27.3679 7.09103 9.90104 
25.805 5.8147 11.4661 
2.94336 8.6761 8.53502 
3.04305 11.529 8.7241 
0.0335141 11.3204 8.49236 
0.00849781 8.61646 8.60029 
1.46744 10.1253 9.99773 
2.99118 8.75556 11.4092 
2.89944 11.378 11.4631 
0.0474291 8.71455 11.5524 
5.46683 8.57193 8.68879 
5.65654 11.4328 8.61929 
4.33997 9.93506 10.0235 
7.22603 9.93637 9.97907 
5.86091 8.65651 11.4821 
5.87051 11.4556 11.4107 
8.57133 8.56753 8.42534 
11.4565 8.67493 8.61681 
8.54964 11.4902 8.74955 
11.419 11.4621 8.45018 
9.99554 9.91365 9.9107 
8.66319 8.52271 11.3901 
11.5996 8.58855 11.2048 
8.61887 11.5305 11.3522 
11.3915 11.5932 11.4384 
14.3862 8.67532 8.58733 
14.1935 11.51 8.50903 
12.7511 10.3317 10.0576 
15.5807 10.0965 10.0748 
14.2226 8.6768 11.4253 
14.3324 11.4915 11.4551 
17.0326 8.69196 8.60484 
20.1608 8.87121 8.52753 
17.2854 11.5714 8.6707 
20.1761 11.5306 8.60224 
18.6025 10.0184 9.83433 
16.9595 8.72401 11.4895 
20.0345 8.75761 11.4629 
17.2218 11.3277 11.4959 
20.2026 11.3344 11.1843 
22.9413 8.6858 8.55558 
23.0714 11.5627 8.55118 
21.7046 10.0101 9.99431 
22.9978 8.8125 11.3941 
22.9902 11.4918 11.5096 
24.4066 10.2072 10.0012 
25.7334 8.63 8.50582 
25.8626 11.4483 8.51143 
28.5122 11.4255 11.3648 
27.3699 9.93723 9.93632 
25.8705 8.69642 11.4079 
25.958 11.4194 11.3476 
3.01684 14.4343 8.64876 
0.129761 14.3351 8.59595 
1.45397 12.9066 9.92216 
1.40903 15.741 10.3061 
2.93161 14.4229 11.5747 
5.68732 14.3626 8.56442 
4.32336 12.8285 10.3312 
7.24823 12.9768 9.93718 
4.43434 15.7747 10.0996 
7.16468 15.5282 9.94687 
5.7493 14.4956 11.4163 
11.4043 14.318 8.63256 
10.0197 12.8794 10.0155 
10.0631 15.7296 9.99479 
8.68327 14.4123 11.4769 
11.5478 14.4428 11.5356 
14.4086 14.4035 8.6324 
12.9483 12.9752 10.0522 
15.8872 12.8185 9.99741 
12.973 15.8949 9.91005 
15.8294 15.8404 10.0137 
14.4379 14.3017 11.3236 
17.247 14.2771 8.62887 
20.1479 14.4322 8.6842 
18.5789 12.7634 10.1223 
18.6325 15.7951 10.1683 
17.2766 14.455 11.3206 
20.3525 14.4201 11.4347 
23.1249 14.3739 8.59424 
21.6496 12.9104 9.9221 
21.6668 15.7881 10.051 
23.0877 14.4268 11.3361 
24.5961 15.7714 10.1096 
26.0781 14.4115 8.57628 
24.6163 12.9222 9.96692 
28.6935 14.3706 11.5457 
27.3646 12.9398 10.1947 
27.3423 15.6586 10.221 
25.7001 14.3108 11.5165 
2.83774 17.1791 8.66011 
2.86715 20.1529 8.77797 
1.48027 18.4745 10.1642 
3.00419 17.1909 11.4364 
2.91198 20.0884 11.2744 
0.0269234 20.0395 11.5232 
0.0783466 17.2165 11.7252 
5.84269 17.3446 8.55274 
5.73726 20.147 8.55889 
4.3803 18.747 10.0153 
7.30832 18.5291 10.0309 
5.82476 17.2043 11.4147 
5.68808 20.1753 11.5776 
8.59967 17.0163 8.48668 
11.4283 17.1939 8.42315 
8.4772 20.021 8.60445 
11.4997 19.9458 8.63262 
9.83679 18.4945 9.98943 
8.72991 17.0646 11.3956 
11.6396 17.2078 11.4264 
8.66687 19.9476 11.5569 
11.6142 19.9924 11.3815 
14.3886 17.2665 8.683 
14.3574 20.0728 8.76323 
12.9569 18.7498 10.1453 
16.0694 18.6751 9.95415 
14.3758 17.287 11.5021 
14.2699 20.1033 11.5861 
17.2005 17.0049 8.51306 
20.1252 17.1577 8.5421 
17.3537 20.0293 8.4942 
20.2753 20.0083 8.48996 
18.732 18.6583 9.93343 
17.3094 17.3963 11.3968 
20.0597 17.3064 11.5357 
17.3782 20.0925 11.6064 
20.17 20.061 11.7331 
22.8262 17.3356 8.70559 
22.8908 19.999 8.6216 
21.5732 18.6948 10.2322 
22.9908 17.1853 11.5878 
23.0743 20.0291 11.5726 
24.4349 18.7052 10.0923 
28.5829 20.1397 8.57162 
28.7114 17.2351 8.66607 
26.0061 17.4071 8.63146 
25.9334 20.1271 8.93712 
27.2629 18.7101 10.1196 
25.9957 17.2421 11.5619 
25.746 20.0807 11.4336 
2.67842 22.9532 8.69855 
0.0423538 22.8355 8.58077 
1.24519 24.2544 10.0599 
1.31882 21.3493 9.9947 
2.72987 22.8908 11.2948 
5.706 22.8174 8.60541 
7.10869 24.5233 10.1067 
4.37448 21.5314 9.94575 
7.08867 21.4871 10.2843 
5.56809 22.9799 11.4153 
8.4612 22.8371 8.84635 
11.3776 22.8852 8.60617 
10.1147 24.4147 10.2301 
10.0737 21.6093 10.1122 
8.55249 23.0573 11.5413 
11.5065 22.8633 11.6743 
14.2102 23.0362 8.60654 
12.7326 21.5369 10.0612 
15.6549 21.6305 10.0003 
12.879 24.163 10.1218 
15.7874 24.4838 10.0094 
14.5038 22.9937 11.5343 
17.2989 22.9298 8.53329 
20.0057 22.9656 8.58404 
18.4512 21.5041 9.92751 
18.6633 24.4282 10.199 
17.1987 23.074 11.6072 
19.9165 22.803 11.4548 
22.9663 22.7729 8.52134 
22.9499 22.9993 11.4082 
24.2053 21.5038 10.1208 
21.6232 24.2961 9.9683 
24.3117 24.3627 10.121 
21.4898 21.3916 9.96331 
25.8509 22.835 8.61178 
27.2617 21.5387 10.1012 
28.6529 22.8666 11.3734 
25.7067 23.1145 11.4141 
27.2335 24.3298 10.0626 
0.0152576 28.6638 8.53786 
2.62975 25.7803 8.67448 
1.35013 27.1895 10.0003 
2.75468 25.7821 11.5306 
0.0337101 25.7885 11.5544 
2.95097 28.701 11.4771 
5.74728 25.8243 8.58881 
5.69358 25.9952 11.4592 
7.16676 27.4204 10.0694 
4.1878 27.1484 9.99827 
4.24966 24.6202 9.93011 
11.3942 28.7039 8.74477 
8.41656 25.8141 8.79949 
11.4796 25.878 8.59795 
11.7586 25.8521 11.53 
11.4829 28.6647 11.3907 
8.57554 25.7828 11.5189 
9.96586 27.2577 10.1247 
14.3365 25.8308 8.69323 
14.372 25.8985 11.5948 
15.8172 27.1605 10.2518 
13.0937 27.2831 10.1683 
14.2968 28.6637 11.3419 
20.0691 28.561 8.64854 
17.3331 28.6459 8.71343 
17.0993 25.7922 8.58249 
20.1389 25.8174 8.629 
19.9774 28.5285 11.6015 
17.3123 28.4888 11.4723 
17.1593 25.6633 11.7189 
18.7131 27.0004 10.0502 
20.2017 25.844 11.5045 
22.9124 25.9223 8.57743 
21.4787 27.392 10.1485 
24.301 27.2891 10.0879 
22.9126 25.889 11.5054 
23.0089 28.636 11.5372 
25.9265 28.6998 8.55982 
28.6568 25.6498 8.63128 
25.8612 25.8707 8.68165 
27.3575 27.0856 9.99639 
25.7121 25.7444 11.3888 
25.8646 28.627 11.4026 
28.4341 28.5655 11.4028 
1.20853 1.61745 12.9292 
4.06013 1.53654 12.7972 
2.84643 2.94374 14.3148 
2.73461 0.111169 14.1515 
1.20102 1.4636 15.7508 
7.07384 1.51774 12.9155 
4.27653 1.56683 15.8536 
7.33298 1.49258 15.8561 
5.65043 2.8681 14.3803 
5.76834 0.1181 14.5151 
10.0735 1.39281 12.8705 
11.5953 2.8545 14.1769 
10.0738 1.49695 15.5956 
8.65525 2.89599 14.3652 
12.8277 1.43023 12.9267 
15.8537 1.35668 12.9245 
14.328 2.80045 14.3043 
12.8528 1.57728 15.8431 
15.7294 1.38493 15.9867 
18.6777 1.27806 12.9013 
18.5952 1.41318 15.8448 
17.2404 2.80498 14.3806 
20.0684 2.90369 14.4206 
21.4168 1.38105 13.0231 
24.4987 1.44886 12.9993 
21.4152 1.28512 15.7848 
24.3328 1.49191 15.9229 
22.8481 2.87971 14.5455 
22.8659 0.0371579 14.4541 
27.1814 1.48801 12.9743 
27.0491 1.36615 15.7833 
25.6103 2.92669 14.405 
28.5697 2.79659 14.4216 
1.33098 4.25258 13.0094 
1.50718 7.2941 12.908 
2.89006 5.82833 14.221 
1.31872 4.29777 15.5028 
1.46873 7.35715 15.6846 
4.256 7.3086 12.9998 
4.29473 4.33709 12.8813 
7.51058 4.57535 12.8169 
7.14637 7.27058 12.938 
5.8595 5.641 14.2663 
4.31259 7.2146 15.7356 
7.18823 4.46378 15.6421 
4.17622 4.40409 15.6936 
7.18962 7.24747 15.7053 
11.5097 5.68649 14.2998 
10.0568 4.20229 12.7711 
10.1368 7.1579 12.8078 
8.6793 5.87371 14.2193 
9.94941 4.34484 15.6099 
10.1423 7.0591 15.9123 
12.7966 4.31602 12.8082 
15.7996 4.26215 12.8937 
12.8971 7.17775 12.9956 
15.5163 7.23243 12.7154 
14.3343 5.70146 14.3427 
12.9708 4.40253 15.6898 
16.0406 4.31474 15.8563 
12.7622 7.15981 15.6943 
15.8832 7.03684 15.804 
17.1716 5.75875 14.2985 
18.6379 4.36125 13.0332 
18.4806 7.47577 12.876 
19.9399 5.7871 14.3657 
18.7166 4.39784 15.9121 
18.7009 7.16742 15.9609 
24.2572 4.41271 12.9761 
21.5499 4.48028 12.9574 
21.4512 7.31674 12.896 
24.5808 7.15371 12.9277 
21.5679 4.3253 15.8922 
21.5022 7.28673 15.7607 
24.5299 7.19694 15.7853 
24.2269 4.25112 15.9285 
22.9893 5.93807 14.4063 
27.2516 4.47033 12.8206 
27.1878 7.27974 12.9356 
27.2826 4.29911 15.7441 
27.2193 7.39666 15.7375 
28.5503 5.83183 14.3838 
25.7985 5.5891 14.4165 
1.37119 10.0694 12.7533 
3.04011 11.512 14.2577 
2.9283 8.70104 14.204 
0.0334331 8.58783 14.2757 
1.36252 10.029 15.5702 
4.2699 10.1567 12.9431 
7.27771 10.1409 12.9104 
4.36509 10.2355 15.7021 
7.21689 10.1287 15.8188 
5.91569 8.75152 14.4006 
5.8446 11.5108 14.5299 
10.1952 9.99236 12.7215 
8.66586 8.61842 14.1848 
11.5156 11.5897 14.263 
8.70855 11.506 14.245 
10.1097 10.0975 15.6083 
11.3183 8.59801 14.363 
12.8328 10.0167 12.8741 
15.6981 10.0655 12.8203 
14.3424 11.6017 14.2151 
14.5398 8.52675 14.2907 
12.9675 10.0421 15.6476 
15.7022 10.1038 15.7556 
18.8018 10.2384 12.8918 
20.1151 8.69078 14.2454 
20.1447 11.6572 14.3408 
17.2518 11.5952 14.3453 
18.4696 9.97228 15.8398 
17.1002 8.5593 14.4095 
21.6384 10.2594 13.0477 
24.4372 10.037 12.907 
21.3966 10.2357 15.8555 
24.3233 10.1433 15.9011 
22.9849 11.6295 14.4443 
23.0167 8.74005 14.3568 
25.7143 11.2942 14.294 
27.1547 9.99816 12.9057 
28.6761 11.4535 14.2567 
27.4405 10.0801 15.7228 
25.8936 8.58879 14.407 
1.2933 12.8842 12.8096 
1.44596 15.8535 13.0405 
2.83588 14.3211 14.297 
1.62626 13.0057 15.7623 
1.43044 15.9207 15.7265 
4.45942 12.8645 13.1134 
7.29002 13.0323 13.2042 
4.39206 15.702 12.8625 
7.20886 15.8283 12.8977 
4.20512 15.901 15.7126 
4.44945 13.1135 15.9406 
7.21494 13.0246 15.8784 
7.35394 16.0071 15.8997 
5.68228 14.3903 14.3965 
8.61017 14.5046 14.2376 
10.0298 12.9242 12.6932 
10.1744 15.8724 12.8713 
11.5795 14.4576 14.1908 
9.97607 12.9889 15.6996 
10.013 15.6738 15.6722 
12.9037 12.9989 12.8222 
15.8772 12.9574 12.7633 
13.1204 15.7625 12.8157 
15.9177 15.8075 12.8325 
14.4961 14.3065 14.2254 
12.8144 12.9613 15.7251 
15.8349 12.8987 15.6226 
12.8923 15.7263 15.6075 
15.8271 15.7573 15.7667 
18.8531 12.8348 12.6511 
18.7299 15.7961 12.8618 
20.0123 14.4392 14.2464 
17.4199 14.4508 14.267 
18.7716 12.9017 15.845 
18.8264 15.641 15.8124 
21.5492 12.913 12.7773 
21.6949 15.8123 13.042 
24.3888 13.0075 12.9571 
24.4235 15.9153 13.0355 
21.6255 12.8808 15.786 
24.4521 12.8665 15.7311 
21.4391 15.8057 15.8601 
24.5479 15.8463 15.8075 
22.9639 14.4407 14.4074 
27.2055 12.9025 12.9553 
27.1764 15.862 13.0414 
28.6943 14.209 14.287 
25.8716 14.3186 14.3853 
27.3972 12.86 15.7416 
27.257 15.8541 15.8887 
2.84735 17.3643 14.1366 
1.49214 18.626 12.8409 
2.76937 20.0762 14.343 
1.50567 18.698 15.8545 
4.08422 18.8987 15.8355 
4.17753 18.5591 12.8213 
7.14114 18.544 12.8178 
5.50285 20.1187 14.1922 
7.17223 18.7133 15.7375 
5.66815 17.2107 14.3844 
11.4225 17.3401 14.1588 
10.0655 18.6461 12.8367 
11.3686 20.4031 14.184 
8.51356 20.0251 14.1753 
10.0959 18.8927 15.9229 
8.77477 17.3864 14.3807 
12.7717 18.7708 13.013 
15.8129 18.4725 13.0388 
14.4706 20.3116 14.343 
14.3206 17.333 14.3511 
12.94 18.8284 15.6464 
15.6683 18.637 15.7306 
18.6715 18.6197 12.8714 
20.2637 19.9524 14.4623 
20.1362 17.2666 14.4771 
18.6728 18.5837 15.8228 
17.2884 20.1186 14.5648 
17.2068 17.374 14.4463 
21.7245 18.8084 13.1081 
24.4741 18.4729 12.9289 
21.405 18.6848 16.0563 
24.4374 18.7182 15.9384 
23.2257 20.2166 14.4144 
22.8457 17.2849 14.6416 
27.2379 18.7426 12.9322 
28.6898 19.9949 14.3395 
27.4528 18.8685 15.8908 
25.9713 20.2273 14.4175 
28.6466 17.4021 14.466 
26.0148 17.3394 14.5445 
1.46814 21.5252 12.7386 
1.51842 24.2937 12.8286 
2.82089 22.9303 14.3325 
1.49199 21.4515 15.7526 
1.53635 24.5183 15.7584 
4.01812 24.4555 15.7337 
4.13633 21.5384 12.9038 
7.14768 21.5642 12.9311 
4.21728 24.3532 12.7865 
7.13855 24.3545 12.9653 
4.33331 21.7367 15.761 
7.15395 21.5189 15.9259 
6.98319 24.3871 15.8462 
5.63892 23.1427 14.392 
10.1159 24.4255 12.8394 
9.99566 21.5826 12.9494 
9.90928 21.5521 15.7542 
10.0532 24.4788 15.7949 
8.57966 23.0568 14.3968 
11.3225 22.9266 14.4281 
15.6771 24.4054 12.964 
12.9136 21.6455 12.9514 
15.6864 21.4266 12.8341 
12.7177 24.3956 13.0085 
14.283 23.0395 14.475 
12.8102 21.5748 15.6533 
15.7218 21.7349 15.6841 
15.5981 24.4669 15.9031 
12.5965 24.5803 15.8307 
18.7479 21.5305 13.0492 
18.643 24.3797 13.1581 
18.7453 21.6183 15.916 
18.6284 24.3703 15.8714 
20.2171 22.8185 14.5909 
17.1356 22.9121 14.3683 
21.8327 21.6072 12.9831 
21.3611 24.419 12.9613 
24.3077 24.372 13.0019 
24.4153 21.5943 12.726 
22.8701 23.0521 14.4594 
21.6068 21.5324 16.0042 
24.2719 21.5723 16.0144 
21.3303 24.3815 15.918 
24.3168 24.2622 15.5877 
27.0164 24.3433 12.9638 
27.3462 21.4893 12.8721 
28.6442 22.8485 14.2536 
25.7024 22.821 14.307 
27.2189 21.6053 15.7831 
27.2992 24.2875 15.7766 
1.27849 27.543 12.9691 
2.77668 26.0461 14.2261 
1.48056 27.2581 15.8288 
7.20417 27.3204 12.8483 
4.26002 27.195 12.904 
5.57419 25.8059 14.2703 
4.3266 27.4146 15.7265 
7.16325 27.0439 15.7284 
11.3959 28.6503 14.1379 
10.0103 27.3278 12.9729 
11.4651 25.9559 14.3261 
10.0171 27.2327 15.7554 
8.61829 25.5845 14.4202 
8.42972 28.6293 14.41 
15.7938 27.2309 13.085 
13.0643 27.406 12.9399 
14.282 28.6535 14.3556 
12.9132 27.4048 15.6826 
15.7662 27.2956 15.7722 
14.2238 25.6672 14.4475 
18.5913 26.9614 13.0405 
20.0828 28.6565 14.295 
17.1615 28.655 14.3227 
18.5862 27.3744 15.9351 
20.0217 25.9412 14.5345 
17.1507 25.8043 14.6479 
24.2522 27.2081 12.8945 
21.5382 27.2434 13.0415 
21.5214 27.2311 15.8353 
24.4231 27.3177 15.7472 
22.9131 25.8477 14.3645 
27.2244 27.2018 12.8654 
28.6582 25.8281 14.3409 
25.7798 28.6744 14.427 
27.2655 27.0959 15.9299 
25.8887 25.8129 14.3922 
28.2992 28.7069 14.4411 
1.46564 1.39568 18.6164 
2.78748 2.93966 17.0065 
2.86829 0.0255339 17.1776 
2.94698 2.83205 20.0905 
4.34263 1.43163 18.5083 
7.16624 1.16269 18.6062 
5.60685 2.96795 17.2972 
5.72562 2.77093 20.1076 
9.87889 1.57261 18.408 
8.42042 3.17271 17.1887 
11.4404 2.94943 17.1657 
11.1994 0.132603 17.0573 
8.42717 2.84038 20.2288 
11.2169 3.02603 20.1306 
11.4207 0.0588933 20.1065 
12.9152 1.4425 18.6187 
15.6575 1.54191 18.6577 
14.311 3.04409 17.0716 
14.2247 0.088322 17.183 
14.252 2.99525 19.9983 
14.4477 0.0342489 20.1043 
18.5358 1.44543 18.6272 
17.2781 3.02565 17.3386 
20.2418 2.93574 17.2905 
20.0249 0.0366186 17.3089 
17.1429 0.0926123 17.2619 
17.1649 2.97991 20.1314 
20.0463 2.76332 20.0288 
21.6284 1.33649 18.7456 
22.903 2.89629 17.4149 
24.343 1.564 18.8254 
23.1347 0.110151 17.3129 
22.8612 2.88755 20.1047 
28.6551 3.00919 17.0654 
27.1968 1.47107 18.723 
25.9521 2.86754 17.2034 
28.6225 0.0460126 17.1964 
25.6878 0.0819603 17.3491 
28.4992 2.88377 20.1136 
25.79 2.95543 20.2184 
25.937 0.0965817 20.1316 
1.54339 4.47337 18.6423 
1.36545 7.1687 18.5291 
2.67776 5.85135 17.1621 
2.86488 5.75851 20.3044 
4.1152 4.49445 18.493 
6.91533 4.34379 18.6661 
4.34213 7.18378 18.3305 
5.78404 5.88263 17.1078 
7.04489 7.06132 18.6304 
5.35559 5.80348 20.0912 
9.75601 4.27349 18.6734 