ITEM: TIMESTEP
27043
ITEM: NUMBER OF ATOMS
2001
ITEM: BOX BOUNDS pp pp pp
0.0000000000000000e+00 2.8712000000000000e+01
0.0000000000000000e+00 2.8712000000000000e+01
0.0000000000000000e+00 2.8712000000000000e+01
ITEM: ATOMS x y z c_cna 
1.43453 1.43466 1.42838 3 
2.87075 2.86965 2.86467 3 
2.86931 0.000289374 2.86425 3 
4.30533 1.4348 1.42843 3 
7.17519 1.4351 1.42843 3 
5.74043 2.87047 2.8644 3 
5.74004 0.000385298 2.86431 3 
10.045 1.43475 1.42855 3 
8.6099 2.87045 2.86447 3 
11.4795 2.86959 2.86489 3 
11.4809 0.000265146 2.86448 3 
8.61024 0.000357031 2.8644 3 
12.9157 1.43462 1.42863 3 
15.7875 1.43556 1.42832 3 
14.3506 2.86963 2.865 3 
14.3524 0.000557474 2.86434 3 
18.6594 1.43689 1.42765 3 
17.2231 2.87141 2.86403 3 
20.0954 2.87333 2.86233 3 
17.2241 0.00114648 2.86388 3 
20.0956 0.00162531 2.86324 3 
21.5311 1.43761 1.42705 3 
24.4029 1.43689 1.42744 3 
22.9668 2.87332 2.86222 3 
22.9668 0.00161791 2.86313 3 
28.7117 2.86966 2.86469 3 
27.2747 1.43555 1.42802 3 
25.8392 2.87139 2.86374 3 
25.8382 0.00113327 2.86359 3 
28.7098 0.000548172 2.86404 3 
1.43749 4.30333 1.42887 3 
1.43881 7.17447 1.4287 3 
2.87194 5.74043 2.86481 3 
0.00429024 5.73722 2.86666 3 
4.30622 4.30523 1.42843 3 
7.1752 4.3059 1.42833 3 
4.30624 7.17707 1.42811 3 
7.17521 7.1777 1.42807 3 
5.74062 5.74177 2.86421 3 
10.0441 4.30517 1.42856 3 
10.0441 7.17701 1.42824 3 
8.60971 5.74175 2.86429 3 
11.4783 5.74035 2.86502 3 
12.9128 4.30326 1.42911 3 
15.7841 4.30365 1.42884 3 
12.9115 7.17442 1.42892 3 
15.7747 7.16693 1.43198 3 
14.3459 5.7372 2.86695 3 
18.6575 4.30711 1.42696 3 
18.6502 7.17095 1.42782 3 
17.2189 5.73855 2.86624 3 
20.0947 5.74358 2.86194 3 
24.4046 4.30708 1.42674 3 
21.5311 4.30971 1.42479 3 
21.5311 7.17782 1.41863 3 
22.9675 5.74356 2.86183 3 
24.412 7.17091 1.42762 3 
27.2781 4.30367 1.42855 3 
27.2875 7.16691 1.43171 3 
25.8433 5.73852 2.86598 3 
1.43719 10.048 1.42782 3 
2.8717 8.61286 2.86432 3 
2.87087 11.4857 2.86409 3 
0.00549547 8.60963 2.86665 3 
0.0029942 11.4858 2.86399 3 
4.30561 10.0495 1.42783 3 
7.1752 10.0498 1.42797 3 
5.74049 8.61382 2.86394 3 
5.74024 11.4859 2.86401 3 
10.0447 10.0495 1.42798 3 
8.60985 8.61381 2.86401 3 
11.4786 8.61286 2.86451 3 
8.61004 11.486 2.86406 3 
11.4794 11.4858 2.86425 3 
12.9131 10.048 1.42802 3 
15.7767 10.0416 1.43057 3 
14.3447 8.60965 2.8669 3 
14.3472 11.4858 2.86421 3 
18.6144 10 1.46038 3 
17.2034 8.59708 2.87861 3 
20.0859 8.60329 2.87338 3 
17.215 11.4914 2.85857 3 
20.1087 11.5229 2.82691 5 
21.5311 12.1727 0.678808 5 
21.5311 9.94743 1.42342 5 
24.4478 9.99995 1.46021 3 
22.9763 8.60325 2.8733 3 
22.9535 11.5229 2.82685 5 
27.2855 10.0416 1.43035 3 
25.8588 8.59703 2.87842 3 
25.8472 11.4913 2.85837 3 
1.43591 12.9217 1.42805 3 
1.43709 15.7953 1.42829 3 
2.87058 14.3584 2.86485 3 
0.00369268 14.3604 2.86687 3 
4.30546 15.7939 1.42844 3 
4.30521 12.9217 1.42814 3 
7.17515 12.9218 1.42824 3 
7.17509 15.7937 1.42851 3 
5.7401 14.3579 2.8644 3 
10.0451 12.9218 1.42829 3 
10.0448 15.794 1.42862 3 
8.61008 14.358 2.86447 3 
11.4797 14.3585 2.86505 3 
12.9144 12.9218 1.42829 3 
15.7834 12.9217 1.42825 3 
12.9132 15.7955 1.42858 3 
15.7769 15.8018 1.42596 3 
14.3466 14.3605 2.86714 3 
18.6969 12.9217 1.42816 5 
18.6144 15.8433 1.39604 3 
17.1886 14.3676 2.87426 3 
19.6934 14.5077 3.01438 5 
20.1087 14.3203 0.0293084 5 
22.9535 14.3203 0.0292462 5 
21.5311 13.6705 2.17727 5 
24.3653 12.9216 1.42801 5 
21.5311 15.8959 1.43276 5 
23.3688 14.5077 3.0142 5 
24.4478 15.8432 1.39582 3 
27.2788 12.9216 1.42798 3 
27.2855 15.8017 1.42564 3 
25.8737 14.3675 2.874 3 
1.43865 18.6688 1.42739 3 
2.87172 17.2312 2.86483 3 
2.87234 20.1036 2.86423 3 
0.00690403 17.2358 2.86564 3 
0.00589667 20.1077 2.86412 3 
4.30604 18.6662 1.42818 3 
7.1751 18.6655 1.42841 3 
5.74031 17.2299 2.86456 3 
5.74059 20.1018 2.86435 3 
10.0442 18.6662 1.42838 3 
8.60981 17.2299 2.86464 3 
11.4785 17.2313 2.86506 3 
8.60957 20.1018 2.86443 3 
11.4779 20.1036 2.86451 3 
12.9117 18.6689 1.42773 3 
15.775 18.6764 1.42465 3 
14.3434 17.2359 2.86597 3 
14.3444 20.1078 2.86451 3 
18.6503 18.6723 1.42866 3 
17.1923 17.2555 2.86568 3 
20.0645 17.2389 2.88664 3 
17.2161 20.1067 2.86656 3 
20.0908 20.1002 2.86915 3 
21.5311 18.6654 1.4376 3 
24.412 18.6723 1.42842 3 
22.9978 17.2389 2.8865 3 
22.9715 20.1001 2.86901 3 
27.2874 18.6763 1.42427 3 
25.87 17.2554 2.86537 3 
25.8463 20.1066 2.86622 3 
1.43732 21.5398 1.42724 3 
1.43444 24.4083 1.4278 3 
2.87106 22.974 2.86397 3 
0.000312747 22.9742 2.86413 3 
4.30524 24.4081 1.42795 3 
4.30606 21.5378 1.42788 3 
7.17513 21.5371 1.42818 3 
5.74045 22.9729 2.86411 3 
7.17517 24.4077 1.42812 3 
10.0442 21.5378 1.42805 3 
8.60977 22.9729 2.8642 3 
11.4791 22.974 2.8642 3 
10.0451 24.4081 1.42808 3 
12.913 21.5398 1.42758 3 
15.7843 21.5396 1.42784 3 
14.35 22.9743 2.86447 3 
12.9158 24.4083 1.42807 3 
15.7876 24.4075 1.42837 3 
18.6577 21.5361 1.42958 3 
18.6595 24.4062 1.4289 3 
17.2222 22.9725 2.86508 3 
20.0946 22.9704 2.86543 3 
21.5311 21.5335 1.4315 3 
24.4046 21.536 1.42934 3 
21.5311 24.4055 1.42927 3 
22.9678 22.9704 2.8653 3 
24.4028 24.4062 1.42867 3 
27.278 21.5395 1.42746 3 
25.8401 22.9724 2.86478 3 
27.2747 24.4074 1.42804 3 
1.43348 27.2775 1.42812 3 
2.8694 25.8431 2.86402 3 
4.30471 27.2774 1.42821 3 
7.17518 27.2774 1.42829 3 
5.74006 25.8429 2.86413 3 
10.0456 27.2774 1.42832 3 
8.6102 25.8429 2.86421 3 
11.4808 25.8431 2.86424 3 
12.9168 27.2775 1.42836 3 
15.7884 27.2775 1.42835 3 
14.3523 25.8429 2.86428 3 
18.6598 27.2775 1.42829 3 
17.2239 25.8424 2.86427 3 
20.0954 25.8419 2.86411 3 
21.5311 27.2776 1.42816 3 
22.967 25.8418 2.86399 3 
24.4025 27.2775 1.42806 3 
28.71 25.8429 2.86397 3 
27.2739 27.2775 1.42805 3 
25.8384 25.8423 2.86397 3 
1.43404 1.43527 4.30033 3 
1.43341 1.43592 7.1718 3 
2.87008 2.87036 5.73646 3 
2.869 0.000823852 5.73602 3 
4.305 1.43536 4.30033 3 
7.1751 1.43561 4.3003 3 
4.30456 1.4359 7.17188 3 
7.17499 1.43606 7.17186 3 
5.74013 2.87096 5.73612 3 
5.73983 0.000891241 5.73609 3 
10.0452 1.43534 4.30052 3 
10.0455 1.43587 7.17204 3 
8.60999 2.87095 5.73623 3 
11.4801 2.87033 5.73672 3 
8.61024 0.000870262 5.73619 3 
11.4811 0.000805394 5.73626 3 
12.9161 1.43524 4.30062 3 
15.7881 1.43601 4.30011 3 
12.9167 1.43586 7.17203 3 
15.7887 1.43643 7.17135 3 
14.3515 2.87044 5.73674 3 
14.3527 0.00101742 5.73596 3 
18.66 1.43711 4.29898 3 
18.6603 1.43706 7.17047 3 
17.224 2.87176 5.73558 3 
20.0957 2.87277 5.73441 3 
20.0958 0.00172529 5.73451 3 
17.2245 0.00144425 5.73521 3 
21.5312 1.43753 4.29834 3 
24.4023 1.43711 4.29878 3 
21.5312 1.43728 7.17005 3 
24.4021 1.43708 7.17033 3 
22.9666 2.87277 5.73431 3 
22.9667 0.00171608 5.73441 3 
27.2742 1.43603 4.29979 3 
28.7107 2.87049 5.73644 3 
27.2736 1.4365 7.17114 3 
25.8382 2.87177 5.73534 3 
25.8379 0.00145532 5.73499 3 
28.7095 0.00102772 5.7357 3 
1.43644 4.30438 4.30138 3 
1.43787 7.17571 4.30174 3 
1.43502 4.30565 7.17265 3 
1.43604 7.17719 7.17243 3 
2.87121 5.74119 5.73673 3 
0.00194474 5.73939 5.73855 3 
4.30604 7.17754 4.30023 3 
7.17514 4.30633 4.30021 3 
4.30579 4.30581 4.30045 3 
7.17515 7.17802 4.29995 3 
4.30567 7.17777 7.17182 3 
4.30521 4.30634 7.17196 3 
7.17504 4.30666 7.17174 3 
5.74041 5.7421 5.73595 3 
7.17507 7.17809 7.17159 3 
10.0445 4.30577 4.30062 3 
10.0442 7.1775 4.30037 3 
10.0449 4.30632 7.17214 3 
8.6098 5.7421 5.73605 3 
10.0445 7.17778 7.17198 3 
11.479 5.74116 5.73697 3 
15.7856 4.3048 4.30165 3 
12.9138 4.30433 4.30168 3 
12.9123 7.17569 4.30198 3 
15.7789 7.17117 4.30655 3 
12.9151 4.3056 7.17289 3 
15.7874 4.30638 7.17228 3 
12.9141 7.17721 7.17266 3 
14.3482 5.73941 5.73882 3 
15.7859 7.17777 7.17214 3 
18.6593 4.3074 4.29947 3 
18.6553 7.17428 4.30395 3 
18.66 4.30785 7.17081 3 
17.2218 5.74096 5.73762 3 
18.6596 7.1804 7.16949 3 
20.0955 5.74344 5.73517 3 
21.5311 7.17801 4.29991 3 
21.5311 4.30863 4.29809 3 
24.4029 4.30737 4.29926 3 
24.4069 7.17424 4.30378 3 
21.5312 4.30839 7.17017 3 
21.5312 7.18162 7.16821 3 
22.9668 5.74341 5.73509 3 
24.4027 7.18036 7.1694 3 
24.4023 4.30785 7.17069 3 
27.2766 4.30482 4.30134 3 
27.2833 7.17114 4.30629 3 
27.2748 4.30638 7.17207 3 
25.8404 5.74092 5.7374 3 
27.2763 7.17771 7.17195 3 
1.43737 10.0493 4.30053 3 
1.43786 10.0479 7.1741 3 
2.87147 8.61337 5.73633 3 
2.87161 11.4854 5.73699 3 
0.0025352 8.61279 5.73693 3 
0.00545697 11.483 5.74023 3 
4.30577 10.0498 4.30001 3 
7.17514 10.05 4.29986 3 
4.30596 10.0495 7.17222 3 
5.74047 8.61396 5.7358 3 
7.17506 10.0499 7.17176 3 
5.74036 11.4859 5.73604 3 
10.0444 10.0499 4.30013 3 
8.60976 8.61396 5.73587 3 
10.0441 10.0495 7.17235 3 
11.4787 8.61339 5.73653 3 
8.60977 11.486 5.7361 3 
11.4785 11.4855 5.73714 3 
12.9128 10.0493 4.30071 3 
15.7808 10.0498 4.30012 3 
12.9123 10.0479 7.17427 3 
14.3476 8.61281 5.73715 3 
15.7789 10.0434 7.17885 3 
14.3447 11.483 5.74041 3 
18.6579 10.058 4.29198 3 
17.2207 8.61496 5.73498 3 
18.6553 10.0459 7.17575 3 
20.0959 8.61979 5.7301 3 
17.2035 11.4712 5.75299 3 
20.086 11.4764 5.74677 3 
21.5311 10.0676 4.28223 3 
24.4044 10.0579 4.29187 3 
21.5312 10.0498 7.172 3 
22.9664 8.61977 5.73005 3 
22.9764 11.4764 5.74673 3 
24.407 10.0459 7.17569 3 
27.2814 10.0498 4.29994 3 
25.8415 8.61494 5.73482 3 
27.2833 10.0433 7.17873 3 
25.8588 11.4712 5.75287 3 
1.43708 12.9219 4.30187 3 
1.43819 15.7966 4.30314 3 
1.4387 12.921 7.17548 3 
1.43991 15.7957 7.17698 3 
2.87173 14.3583 5.73784 3 
0.00693734 14.3592 5.74249 3 
4.30546 12.922 4.30045 3 
4.30563 15.7944 4.30096 3 
7.17508 12.922 4.30016 3 
7.17503 15.794 4.30056 3 
4.30604 12.9217 7.1728 3 
7.17501 12.9219 7.17215 3 
4.30631 15.7943 7.17344 3 
5.74032 14.358 5.7365 3 
7.17499 15.794 7.17261 3 
10.0447 12.9221 4.30054 3 
10.0445 15.7945 4.30108 3 
10.044 12.9217 7.17287 3 
8.60975 14.3581 5.73654 3 
10.0438 15.7944 7.1735 3 
11.4784 14.3584 5.73794 3 
12.9131 12.922 4.30206 3 
15.7768 12.9193 4.30844 3 
12.9121 15.7966 4.30336 3 
15.7714 15.8065 4.3133 3 
12.9115 12.921 7.17559 3 
15.7748 12.9179 7.18318 3 
12.9103 15.7957 7.17708 3 
14.3433 14.3592 5.74268 3 
15.7707 15.7997 7.18734 3 
18.6144 12.8894 4.35002 3 
18.5561 15.891 4.3978 3 
18.6503 12.9219 7.1792 3 
17.1923 14.3589 5.7623 3 
18.6434 15.8086 7.18467 3 
20.0645 14.3799 5.74579 3 
21.5312 12.9262 4.40262 5 
21.5312 15.7418 4.2486 5 
24.5063 15.891 4.39762 3 
21.5312 12.931 7.17228 3 
21.5312 15.7933 7.16898 3 
22.9979 14.3799 5.74574 3 
24.4191 15.8086 7.18459 3 
24.4121 12.9219 7.17913 3 
24.4479 12.8894 4.34988 3 
27.2855 12.9193 4.30824 3 
27.2909 15.8064 4.31304 3 
27.2875 12.9179 7.18306 3 
25.8701 14.3589 5.76212 3 
27.2917 15.7996 7.18723 3 
1.43985 18.6702 4.30223 3 
1.4411 18.6711 7.17778 3 
2.87268 17.2319 5.73855 3 
2.87298 20.1044 5.73792 3 
0.00753308 20.1097 5.74109 3 
0.0102704 17.2384 5.74505 3 
4.30628 18.6668 4.3009 3 
7.17504 18.6659 4.30063 3 
4.30675 18.6672 7.17381 3 
5.74049 17.2303 5.73688 3 
7.175 18.6662 7.17289 3 
5.7407 20.1023 5.73679 3 
10.0439 18.6668 4.30105 3 
8.60954 17.2303 5.73693 3 
10.0433 18.6671 7.17385 3 
11.4775 17.2319 5.7387 3 
8.60936 20.1023 5.73685 3 
11.4772 20.1044 5.73807 3 
12.9104 18.6703 4.30251 3 
15.7707 18.6805 4.30654 3 
12.9091 18.6711 7.17789 3 
14.34 17.2384 5.74526 3 
15.7689 18.6833 7.19014 3 
14.3427 20.1098 5.74131 3 
18.6434 18.6777 4.31546 3 
17.1807 17.2694 5.77634 3 
18.6595 18.6727 7.17961 3 
20.1058 17.2342 5.74107 3 
17.2145 20.1103 5.74572 3 
20.0956 20.1029 5.73865 3 
21.5312 18.662 4.3001 3 
24.419 18.6777 4.31526 3 
21.5313 18.6715 7.17836 3 
22.9566 17.2341 5.74097 3 
22.9669 20.1028 5.73856 3 
24.403 18.6726 7.17952 3 
27.2916 18.6804 4.30624 3 
25.8818 17.2694 5.77612 3 
27.2935 18.6832 7.19001 3 
25.8479 20.1101 5.74551 3 
1.4381 21.5408 4.30098 3 
1.4347 24.4089 4.30024 3 
1.43857 21.5417 7.17519 3 
2.87136 22.9747 5.73683 3 
1.43479 24.4095 7.17284 3 
0.000847732 22.9752 5.73765 3 
7.17506 21.5375 4.30039 3 
4.30628 21.5384 4.30047 3 
7.17507 24.4082 4.30019 3 
4.30533 24.4086 4.30015 3 
4.30649 21.5389 7.17326 3 
7.17501 21.538 7.1727 3 
4.30532 24.4091 7.17242 3 
5.74048 22.9734 5.73641 3 
7.175 24.4087 7.17227 3 
10.0439 21.5384 4.30063 3 
10.0448 24.4086 4.30031 3 
10.0436 21.5389 7.17334 3 
8.60959 22.9734 5.73648 3 
10.0447 24.4091 7.17253 3 
11.4788 22.9747 5.73702 3 
12.9121 21.5409 4.30125 3 
15.7829 21.5411 4.30263 3 
15.7872 24.4083 4.3007 3 
12.9155 24.409 4.3005 3 
12.9116 21.5417 7.17534 3 
15.7828 21.5426 7.17756 3 
14.3494 22.9753 5.73788 3 
15.7873 24.4091 7.173 3 
12.9153 24.4096 7.17299 3 
18.6564 21.5379 4.30337 3 
18.6592 24.4071 4.30047 3 
18.6592 21.5392 7.17457 3 
17.2219 22.9739 5.73814 3 
20.0953 22.9722 5.73647 3 
18.6598 24.4081 7.17195 3 
24.4061 21.5378 4.30315 3 
21.5312 21.5355 4.30106 3 
24.4033 24.4069 4.30027 3 
21.5313 24.4065 4.2999 3 
21.5313 21.5385 7.17359 3 
21.5313 24.4078 7.17145 3 
22.9673 22.9721 5.73639 3 
24.4027 24.408 7.17186 3 
24.4034 21.5391 7.17447 3 
27.2794 21.5409 4.3023 3 
27.2751 24.4081 4.3004 3 
27.2795 21.5425 7.17743 3 
25.8405 22.9738 5.73793 3 
27.275 24.409 7.17287 3 
1.43339 27.2779 4.29998 3 
1.43319 27.2784 7.17177 3 
2.8694 25.8436 5.73612 3 
4.30458 27.2779 4.30013 3 
7.17508 27.2779 4.3002 3 
4.30438 27.2784 7.1719 3 
5.73998 25.8434 5.73612 3 
7.17498 27.2784 7.17198 3 
10.0456 27.2779 4.3003 3 
8.61008 25.8434 5.7362 3 
10.0456 27.2784 7.17205 3 
11.4807 25.8436 5.73633 3 
12.9168 27.278 4.30025 3 
15.7884 27.278 4.29997 3 
12.9169 27.2784 7.17197 3 
14.3522 25.8435 5.7363 3 
15.7887 27.2784 7.17147 3 
18.66 27.2779 4.29942 3 
17.224 25.843 5.73587 3 
18.6602 27.2783 7.17076 3 
20.0956 25.8426 5.73517 3 
21.5312 27.2779 4.29902 3 
24.4024 27.2779 4.29923 3 
21.5313 27.2783 7.17039 3 
22.9669 25.8426 5.7351 3 
24.4023 27.2783 7.17063 3 
28.71 25.8435 5.73607 3 
27.2738 27.2779 4.29969 3 
25.8384 25.8429 5.73568 3 
27.2736 27.2784 7.17131 3 
2.86919 2.87112 8.60759 3 
1.43271 1.4365 10.0427 3 
2.86842 2.87157 11.4781 3 
2.86814 0.00148636 11.4783 3 
2.86857 0.00130254 8.60746 3 
5.7398 2.87134 8.6074 3 
4.30406 1.43629 10.0429 3 
7.17494 1.43633 10.0429 3 
5.73951 2.87146 11.4781 3 
5.7396 0.00129006 8.60754 3 
5.73942 0.00138432 11.4784 3 
8.61015 2.87134 8.60746 3 
11.4809 2.87107 8.60773 3 
8.61031 0.00127809 8.6076 3 
10.0459 1.43628 10.043 3 
8.61041 2.87144 11.4781 3 
11.4817 2.87153 11.478 3 
8.61049 0.00137486 11.4784 3 
11.4814 0.00126277 8.6076 3 
11.4819 0.00146288 11.4783 3 
14.3526 2.87143 8.60738 3 
12.9174 1.43644 10.0427 3 
15.7892 1.43685 10.0422 3 
14.3534 2.872 11.4776 3 
14.3531 0.00142521 8.60719 3 
14.3536 0.00161048 11.478 3 
17.2246 2.87227 8.60648 3 
20.0958 2.8728 8.60584 3 
20.0959 0.00181266 8.60602 3 
17.2249 0.00178678 11.4776 3 
18.6604 1.43721 10.0417 3 
17.2249 2.87255 11.4772 3 
20.0958 2.87289 11.4769 3 
17.2248 0.00165526 8.6065 3 
20.0959 0.0018971 11.4774 3 
22.9666 2.87282 8.60581 3 
22.9666 0.0018358 8.60597 3 
22.9666 0.00193941 11.4774 3 
21.5312 1.43736 10.0415 3 
24.402 1.43728 10.0416 3 
22.9665 2.87292 11.4769 3 
28.7086 0.00167942 11.478 3 
28.7096 2.8715 8.60724 3 
25.8377 2.87232 8.60638 3 
28.7089 2.87205 11.4777 3 
25.8374 0.00186561 11.4776 3 
27.2731 1.43694 10.0421 3 
25.8375 2.87261 11.4772 3 
28.7091 0.00149413 8.60704 3 
25.8376 0.00172807 8.60639 3 
2.87004 5.74195 8.60761 3 
1.43344 4.30683 10.0428 3 
1.43509 7.17686 10.0441 3 
2.86929 5.74194 11.4785 3 
5.7401 5.74227 8.60731 3 
4.30451 4.30674 10.0428 3 
4.30524 7.17756 10.0433 3 
7.17496 4.3068 10.0428 3 
7.17498 7.17787 10.043 3 
5.73983 5.74211 11.4783 3 
8.60993 5.74227 8.60738 3 
11.4801 5.74195 8.60779 3 
10.0455 4.3067 10.0429 3 
10.0448 7.17757 10.0433 3 
8.61014 5.7421 11.4783 3 
11.4808 5.74192 11.4785 3 
14.3514 5.74212 8.60768 3 
15.7887 4.30759 10.0421 3 
12.9167 4.3068 10.0429 3 
12.9151 7.1769 10.0441 3 
15.7874 7.17751 10.0435 3 
14.3525 5.74233 11.4782 3 
17.224 5.74353 8.60628 3 
20.0957 5.74468 8.60512 3 
18.6603 4.30843 10.0413 3 
18.66 7.17892 10.042 3 
17.2245 5.74324 11.4775 3 
20.0958 5.74382 11.4771 3 
22.9666 5.74467 8.6051 3 
21.5312 4.30875 10.041 3 
21.5312 7.17948 10.0415 3 
22.9666 5.74384 11.4771 3 
24.4023 7.17891 10.0421 3 
24.402 4.30845 10.0413 3 
28.7108 5.7421 8.60753 3 
25.8383 5.74351 8.6062 3 
28.7097 5.74233 11.4783 3 
27.2736 4.30762 10.0421 3 
27.2749 7.17747 10.0434 3 
25.8378 5.74323 11.4776 3 
2.87122 8.6128 8.6085 3 
2.87189 11.4848 8.60942 3 
1.43651 10.0481 10.0454 3 
2.87017 8.613 11.4794 3 
2.87081 11.4849 11.4802 3 
0.00428981 11.4829 8.61272 3 
0.00198995 8.61098 8.61037 3 
5.74037 8.61367 8.60755 3 
5.74047 11.4856 8.60798 3 
4.30575 10.0491 10.0439 3 
7.17499 10.0495 10.0433 3 
5.74013 8.61345 11.4787 3 
5.74032 11.4853 11.4792 3 
8.60968 8.6137 8.60762 3 
11.4789 8.61287 8.60866 3 
8.60954 11.4856 8.60803 3 
11.4782 11.4849 8.60952 3 
10.0443 10.0492 10.044 3 
8.60988 8.61346 11.4787 3 
11.4799 8.61304 11.4794 3 
8.6097 11.4854 11.4792 3 
11.4793 11.485 11.4801 3 
14.3482 8.61105 8.61051 3 
14.3459 11.4829 8.61281 3 
12.9136 10.0482 10.0455 3 
15.7856 10.0482 10.0452 3 
14.3514 8.61306 11.4793 3 
14.3504 11.4849 11.4802 3 
17.2218 8.61224 8.60901 3 
20.0955 8.61458 8.60655 3 
17.219 11.4836 8.61156 3 
20.0947 11.4877 8.60652 3 
18.6593 10.0503 10.0426 3 
17.2239 8.61416 11.4781 3 
20.0957 8.61521 11.4772 3 
17.223 11.4858 11.4786 3 
20.0955 11.4873 11.4767 3 
22.9669 8.61455 8.60654 3 
22.9676 11.4877 8.6065 3 
21.5312 10.0515 10.0414 3 
22.9666 8.61519 11.4772 3 
22.9669 11.4873 11.4767 3 
24.403 10.0502 10.0426 3 
25.8405 8.61218 8.60895 3 
25.8433 11.4835 8.6115 3 
28.7108 8.61299 11.4794 3 
28.7118 11.4848 11.4803 3 
27.2767 10.0481 10.0451 3 
25.8383 8.6141 11.4782 3 
25.8393 11.4857 11.4786 3 
2.87242 14.3577 8.61035 3 
0.00603396 14.3576 8.61461 3 
1.43747 12.9207 10.0466 3 
1.43827 15.7944 10.0477 3 
2.87123 14.3574 11.4809 3 
0.000556377 14.3576 11.4812 3 
5.74055 14.3578 8.60852 3 
4.30608 12.9213 10.0446 3 
7.17499 12.9216 10.0438 3 
4.30635 15.7939 10.0452 3 
7.17498 15.7938 10.0443 3 
5.74044 14.3575 11.4798 3 
8.60943 14.3578 8.60852 3 
11.4777 14.3578 8.61038 3 
10.044 12.9214 10.0446 3 
10.0437 15.794 10.0452 3 
8.60958 14.3576 11.4798 3 
11.4789 14.3575 11.4809 3 
14.3442 14.3577 8.61467 3 
12.9127 12.9208 10.0466 3 
15.7841 12.921 10.0464 3 
12.912 15.7945 10.0477 3 
15.7828 15.7958 10.0479 3 
14.3497 14.3577 11.4811 3 
17.216 14.3597 8.61357 3 
20.0908 14.3624 8.60713 3 
18.6576 12.9228 10.043 3 
18.6563 15.7965 10.0448 3 
17.2221 14.3582 11.4793 3 
20.0946 14.3586 11.4773 3 
22.9716 14.3624 8.60709 3 
21.5312 12.9248 10.0404 3 
21.5312 15.7943 10.0424 3 
22.9679 14.3586 11.4773 3 
24.4062 15.7965 10.0448 3 
24.4047 12.9227 10.043 3 
25.8464 14.3597 8.61351 3 
27.2782 12.921 10.0464 3 
27.2796 15.7957 10.0479 3 
25.8403 14.3582 11.4794 3 
2.87303 17.2313 8.6112 3 
2.87313 20.1046 8.61127 3 
0.00685842 20.1097 8.61645 3 
0.00763769 17.2344 8.61659 3 
1.43868 18.6686 10.0485 3 
2.8715 17.2303 11.4816 3 
2.8714 20.1031 11.4818 3 
0.000562516 20.1041 11.4825 3 
0.00102396 17.2311 11.4822 3 
5.74069 17.2302 8.609 3 
5.74078 20.1025 8.60913 3 
4.30653 18.6667 10.0457 3 
7.175 18.6661 10.0447 3 
5.74051 17.2299 11.4803 3 
5.7405 20.1021 11.4804 3 
8.60929 17.2302 8.60899 3 
11.4771 17.2313 8.61121 3 
8.60923 20.1025 8.60912 3 
11.477 20.1046 8.61127 3 
10.0435 18.6667 10.0456 3 
8.60952 17.2299 11.4802 3 
11.4787 17.2303 11.4815 3 
8.60955 20.1021 11.4804 3 
11.4788 20.1031 11.4817 3 
14.3427 17.2345 8.61662 3 
14.3435 20.1097 8.61646 3 
12.9116 18.6686 10.0484 3 
15.7828 18.6708 10.0494 3 
14.3493 17.2311 11.482 3 
14.3498 20.1041 11.4824 3 
17.2145 17.2389 8.61715 3 
20.0956 17.2318 8.60979 3 
17.2217 20.1066 8.61339 3 
20.0954 20.105 8.61183 3 
18.6591 18.6678 10.046 3 
17.2219 17.2314 11.4807 3 
20.0952 17.2297 11.479 3 
17.2235 20.1028 11.481 3 
20.0956 20.102 11.4803 3 
22.9669 17.2318 8.60975 3 
22.9672 20.105 8.6118 3 
21.5313 18.6668 10.0453 3 
22.9673 17.2296 11.479 3 
22.967 20.1019 11.4804 3 
24.4034 18.6677 10.0461 3 
25.848 17.2388 8.61709 3 
25.8408 20.1065 8.61337 3 
27.2796 18.6707 10.0494 3 
25.8406 17.2313 11.4807 3 
25.839 20.1027 11.4811 3 
2.8713 22.975 8.60959 3 
0.00048169 22.9757 8.61069 3 
1.43428 24.4096 10.0448 3 
1.43747 21.541 10.0477 3 
2.87035 22.9744 11.481 3 
5.74045 22.9738 8.60862 3 
4.30509 24.4092 10.0443 3 
7.17496 24.4088 10.044 3 
4.30625 21.5388 10.0454 3 
7.17501 21.538 10.0446 3 
5.74022 22.9736 11.4801 3 
8.60954 22.9738 8.60864 3 
11.4788 22.9751 8.60964 3 
10.0449 24.4092 10.0443 3 
10.0438 21.5388 10.0454 3 
8.60981 22.9736 11.48 3 
11.4797 22.9744 11.4809 3 
14.3498 22.9758 8.61073 3 
12.9127 21.541 10.0476 3 
15.7865 21.5403 10.0468 3 
12.9159 24.4096 10.0448 3 
15.7883 24.4091 10.0442 3 
14.3519 22.9742 11.4807 3 
17.2235 22.9743 8.60945 3 
20.0956 22.9736 8.60863 3 
18.6596 21.5392 10.0458 3 
18.6601 24.4086 10.0436 3 
17.2242 22.9736 11.4801 3 
20.0957 22.9733 11.4798 3 
22.967 22.9736 8.60861 3 
21.5313 24.4085 10.0434 3 
24.4029 21.5391 10.0458 3 
22.9668 22.9732 11.4799 3 
21.5313 21.5388 10.0455 3 
24.4024 24.4086 10.0436 3 
25.839 22.9742 8.60943 3 
27.2758 21.5402 10.0469 3 
28.7104 22.9742 11.4808 3 
25.8382 22.9736 11.4802 3 
27.2741 24.409 10.0442 3 
2.86922 25.844 8.60806 3 
1.4328 27.2787 10.0432 3 
2.86875 25.8439 11.4793 3 
5.73986 25.8438 8.60794 3 
5.73969 25.8438 11.4792 3 
7.17493 27.2786 10.0433 3 
4.30412 27.2786 10.0433 3 
8.61008 25.8438 8.60799 3 
11.4808 25.844 8.60817 3 
11.4813 25.8439 11.4793 3 
8.61027 25.8437 11.4792 3 
10.0458 27.2786 10.0434 3 
14.3524 25.8439 8.60805 3 
14.3531 25.8437 11.479 3 
15.7891 27.2786 10.0427 3 
12.9173 27.2787 10.0432 3 
17.2244 25.8435 8.60732 3 
20.0958 25.8433 8.60681 3 
17.2247 25.8435 11.4786 3 
18.6604 27.2786 10.0422 3 
20.0958 25.8435 11.4784 3 
22.9668 25.8433 8.60676 3 
21.5313 27.2786 10.042 3 
24.4021 27.2786 10.0422 3 
22.9667 25.8435 11.4784 3 
28.7098 25.8439 8.60795 3 
28.7091 25.8438 11.479 3 
25.838 25.8435 8.60726 3 
27.2732 27.2787 10.0426 3 
25.8377 25.8436 11.4786 3 
1.43231 1.43655 12.9132 3 
2.86828 2.87127 14.3483 3 
2.86794 0.00107905 14.3487 3 
1.43247 1.43587 15.7834 3 
4.30377 1.43627 12.9134 3 
7.17498 1.43621 12.9133 3 
5.7394 0.000941222 14.3487 3 
5.73953 2.87109 14.3483 3 
4.30395 1.43559 15.7834 3 
7.17509 1.43554 15.7833 3 
11.4822 0.00107198 14.3485 3 
10.0463 1.43626 12.9133 3 
11.4819 2.87123 14.3481 3 
8.61056 2.87105 14.3482 3 
10.0463 1.43557 15.7832 3 
8.61071 0.000960562 14.3486 3 
12.9179 1.43652 12.9131 3 
15.7894 1.43687 12.9128 3 
14.3535 2.87169 14.348 3 
12.9178 1.43586 15.7832 3 
15.7892 1.43621 15.7833 3 
14.3537 0.00125395 14.3484 3 
18.6604 1.43714 12.9127 3 
18.6603 1.43646 15.7834 3 
20.0957 2.87242 14.348 3 
17.2249 0.00143194 14.3484 3 
17.2248 2.87215 14.348 3 
20.0958 0.00152575 14.3484 3 
21.5312 1.43725 12.9126 3 
24.4019 1.4372 12.9127 3 
21.5311 1.43657 15.7835 3 
24.402 1.43649 15.7835 3 
22.9665 2.87243 14.348 3 
22.9665 0.0015737 14.3484 3 
28.7088 2.87172 14.3482 3 
27.2729 1.43692 12.9129 3 
25.8375 2.87217 14.3481 3 
28.7085 0.00128386 14.3486 3 
27.2731 1.43622 15.7835 3 
25.8374 0.00147241 14.3485 3 
1.43282 4.3069 12.9133 3 
1.43359 7.17766 12.9139 3 
1.43304 4.30642 15.7832 3 
1.4335 7.17772 15.7834 3 
2.8688 5.74203 14.3485 3 
4.30467 7.17757 12.9138 3 
4.30417 4.3066 12.9134 3 
7.17498 4.30657 12.9133 3 
7.17501 7.17766 12.9135 3 
5.73975 5.74192 14.3484 3 
4.30466 7.17756 15.7834 3 
7.1751 4.30614 15.7831 3 
4.30436 4.30619 15.7832 3 
7.17511 7.17753 15.7833 3 
10.0459 4.30656 12.9133 3 
10.0454 7.17757 12.9137 3 
8.61034 5.74188 14.3483 3 
10.0459 4.30615 15.783 3 
10.0456 7.17752 15.7832 3 
11.4813 5.742 14.3483 3 
12.9173 4.30687 12.9131 3 
15.7891 4.3075 12.9128 3 
12.9166 7.17767 12.9138 3 
15.7885 7.17837 12.9133 3 
14.353 5.74249 14.3482 3 
12.9172 4.3064 15.7829 3 
15.7888 4.30702 15.7831 3 
12.9167 7.1777 15.7832 3 
15.7884 7.17823 15.7833 3 
18.6603 4.30803 12.9126 3 
18.6602 7.17919 12.9128 3 
17.2246 5.74318 14.3481 3 
18.6601 4.30753 15.7832 3 
18.6599 7.17892 15.7835 3 
20.0957 5.74364 14.3481 3 
24.4021 4.30751 15.7834 3 
24.402 4.30805 12.9127 3 
21.5312 4.30824 12.9125 3 
21.5311 7.17952 12.9127 3 
24.4021 7.17916 12.9129 3 
21.5311 4.30771 15.7834 3 
21.5311 7.1792 15.7836 3 
24.4023 7.17889 15.7836 3 
22.9666 5.74362 14.3481 3 
27.2732 4.30752 12.913 3 
27.2737 7.17833 12.9134 3 
27.2734 4.307 15.7833 3 
27.2738 7.1782 15.7835 3 
25.8377 5.74317 14.3482 3 
28.7093 5.74248 14.3484 3 
1.43423 10.0491 12.9145 3 
2.8695 11.4853 14.3495 3 
2.86924 8.61344 14.3489 3 
1.4337 10.0495 15.7839 3 
4.30508 10.0492 12.9144 3 
7.17503 10.0494 12.914 3 
4.30481 10.0494 15.7838 3 
7.17512 10.0494 15.7837 3 
5.73995 8.61342 14.3488 3 
5.74006 11.4854 14.3493 3 
10.045 10.0493 12.9143 3 
8.61011 11.4854 14.3493 3 
8.61018 8.61342 14.3487 3 
11.4807 11.4854 14.3493 3 
10.0454 10.0494 15.7837 3 
11.4809 8.61344 14.3488 3 
12.9159 10.0492 12.9145 3 
15.7879 10.0497 12.9138 3 
14.3525 8.61376 14.3487 3 
14.3522 11.4855 14.3491 3 
12.9165 10.0495 15.7837 3 
15.7881 10.0498 15.7837 3 
18.6599 10.0507 12.9128 3 
20.0955 11.4864 14.3483 3 
17.224 11.4859 14.3487 3 
17.2243 8.61449 14.3484 3 
20.0956 8.61509 14.3482 3 
18.6597 10.0503 15.7839 3 
21.5311 10.0512 12.9125 3 
24.4024 10.0506 12.9129 3 
22.9666 8.61507 14.3482 3 
21.5311 10.0505 15.7839 3 
24.4025 10.0502 15.784 3 
22.9668 11.4863 14.3483 3 
28.7101 11.4854 14.3493 3 
27.2743 10.0496 12.9139 3 
25.8383 11.4858 14.3488 3 
25.838 8.61443 14.3485 3 
28.7097 8.61374 14.3488 3 
27.2741 10.0497 15.7839 3 
1.43468 12.9212 12.9152 3 
1.43495 15.7937 12.9159 3 
1.43375 12.9215 15.7843 3 
1.43364 15.7935 15.7848 3 
2.86962 14.3575 14.35 3 
4.30532 12.9213 12.915 3 
7.17505 12.9214 12.9146 3 
4.30545 15.7936 12.9155 3 
7.17503 15.7937 12.9151 3 
4.30477 15.7937 15.7848 3 
4.30483 12.9215 15.7843 3 
7.17512 12.9216 15.7842 3 
7.17513 15.7937 15.7847 3 
5.7401 14.3575 14.3498 3 
10.0448 12.9214 12.9149 3 
10.0447 15.7937 12.9154 3 
11.4806 14.3576 14.3499 3 
8.61007 14.3576 14.3498 3 
10.0454 12.9216 15.7842 3 
10.0455 15.7937 15.7846 3 
12.9155 12.9213 12.9151 3 
15.7874 12.9215 12.9143 3 
12.9153 15.7938 12.9157 3 
15.7871 15.7939 12.915 3 
14.352 14.3575 14.3496 3 
12.9165 12.9216 15.7841 3 
15.7881 12.9215 15.7842 3 
12.9166 15.7936 15.7846 3 
15.7883 15.7933 15.7846 3 
18.6594 12.9221 12.9131 3 
18.6591 15.7937 12.9138 3 
17.2238 14.3575 14.3491 3 
18.6597 12.9215 15.7842 3 
18.6598 15.7927 15.7846 3 
20.0953 14.3573 14.3487 3 
21.5312 12.9225 12.9124 3 
21.5312 15.7932 12.9134 3 
24.403 12.922 12.9131 3 
24.4034 15.7936 12.9139 3 
21.5311 12.9214 15.7843 3 
24.4026 12.9214 15.7843 3 
21.5312 15.7923 15.7846 3 
24.4025 15.7926 15.7847 3 
22.967 14.3573 14.3487 3 
28.7103 14.3574 14.3498 3 
25.8386 14.3573 14.3492 3 
27.2749 12.9214 12.9144 3 
27.2753 15.7938 12.9151 3 
27.2742 12.9214 15.7843 3 
27.274 15.7931 15.7847 3 
1.43496 18.6663 12.9164 3 
1.43338 18.6654 15.7852 3 
2.86938 20.1017 14.3508 3 
2.8696 17.2297 14.3505 3 
4.30545 18.666 12.9159 3 
7.17505 18.6658 12.9154 3 
5.74009 17.2297 14.3503 3 
4.30459 18.6656 15.7852 3 
7.17511 18.6657 15.7851 3 
5.74001 20.1016 14.3505 3 
8.61008 17.2297 14.3502 3 
10.0447 18.666 12.9158 3 
8.61017 20.1016 14.3504 3 
11.4806 17.2298 14.3503 3 
10.0457 18.6656 15.785 3 
11.4809 20.1017 14.3505 3 
14.3521 17.2297 14.3501 3 
12.9153 18.6664 12.9162 3 
15.7872 18.6664 12.9157 3 
14.3524 20.1016 14.3504 3 
12.9169 18.6655 15.785 3 
15.7886 18.6649 15.7849 3 
20.0955 17.2285 14.3493 3 
18.6597 18.6653 12.9148 3 
18.6601 18.6642 15.7849 3 
17.2244 20.1008 14.35 3 
20.0957 20.1002 14.3499 3 
17.2239 17.2292 14.3496 3 
21.5313 18.6648 12.9145 3 
24.4028 18.6652 12.9149 3 
22.9669 17.2284 14.3493 3 
22.9668 20.1002 14.3499 3 
21.5312 18.6638 15.7849 3 
24.4023 18.6641 15.785 3 
28.7099 20.1015 14.3507 3 
27.2752 18.6663 12.9159 3 
27.2738 18.6648 15.7851 3 
25.8385 17.2291 14.3498 3 
25.8381 20.1007 14.3502 3 
28.7103 17.2295 14.3503 3 
1.43436 21.5383 12.9163 3 
1.43306 24.4086 12.9151 3 
2.86883 22.973 14.3505 3 
1.43292 21.5369 15.7853 3 
1.43237 24.4075 15.785 3 
4.30518 21.5379 12.9158 3 
7.17504 21.5376 12.9154 3 
4.3045 24.4087 12.9151 3 
7.17502 24.4085 12.9149 3 
5.73979 22.9729 14.3503 3 
4.3039 24.4077 15.7849 3 
4.30428 21.5371 15.7853 3 
7.17511 21.5371 15.7852 3 
7.17511 24.4077 15.7848 3 
10.0456 24.4087 12.915 3 
10.0449 21.5379 12.9157 3 
8.61037 22.9729 14.3502 3 
10.046 21.5371 15.7851 3 
10.0463 24.4077 15.7848 3 
11.4814 22.9729 14.3503 3 
15.7889 24.4083 12.9147 3 
12.9159 21.5383 12.9161 3 
15.7883 21.5377 12.9155 3 
12.9171 24.4086 12.9149 3 
14.3531 22.9726 14.3501 3 
12.9173 21.5369 15.7851 3 
15.789 21.5363 15.7851 3 
12.9179 24.4075 15.7848 3 
15.7893 24.4072 15.7848 3 
17.2247 22.9722 14.35 3 
18.6601 21.5371 12.9152 3 
18.6603 24.408 12.9145 3 
18.6603 21.5358 15.7851 3 
18.6604 24.407 15.7848 3 
20.0958 22.9719 14.3499 3 
24.4022 24.4081 12.9146 3 
21.5313 24.408 12.9145 3 
24.4024 21.537 12.9153 3 
21.5313 21.5368 12.9151 3 
21.5312 21.5356 15.7851 3 
24.4021 21.5357 15.7852 3 
21.5312 24.4069 15.7849 3 
22.9667 22.9719 14.35 3 
24.402 24.407 15.785 3 
28.7091 22.9726 14.3503 3 
27.2734 24.4083 12.9148 3 
27.2741 21.5376 12.9157 3 
27.2733 21.5363 15.7852 3 
27.273 24.4072 15.785 3 
25.8377 22.9721 14.3501 3 
1.43233 27.2785 12.9139 3 
2.86812 25.8432 14.3496 3 
1.43218 27.2777 15.7842 3 
7.175 27.2783 12.914 3 
4.30382 27.2784 12.914 3 
5.7395 25.8432 14.3496 3 
4.3037 27.2777 15.7841 3 
7.17511 27.2776 15.7841 3 
10.0462 27.2784 12.914 3 
11.482 25.8431 14.3494 3 
8.61061 25.8432 14.3495 3 
10.0465 27.2777 15.784 3 
15.7893 27.2784 12.9135 3 
12.9178 27.2784 12.9138 3 
14.3536 25.843 14.3493 3 
12.918 27.2777 15.784 3 
15.7894 27.2777 15.7841 3 
18.6604 27.2785 12.9134 3 
18.6604 27.2778 15.7841 3 
20.0958 25.8429 14.3493 3 
17.2249 25.8429 14.3493 3 
24.402 27.2785 12.9134 3 
21.5312 27.2785 12.9133 3 
21.5312 27.2778 15.7842 3 
24.4019 27.2778 15.7842 3 
22.9666 25.8429 14.3493 3 
28.7086 25.8431 14.3495 3 
27.273 27.2785 12.9136 3 
27.2729 27.2778 15.7842 3 
25.8374 25.8429 14.3494 3 
1.43327 1.43466 18.6534 3 
2.869 2.8703 17.218 3 
2.86825 0.000180953 17.2187 3 