ITEM: TIMESTEP
27043
ITEM: NUMBER OF ATOMS
18
ITEM: BOX BOUNDS pp pp pp
0.0000000000000000e+00 2.8712000000000000e+01
0.0000000000000000e+00 2.8712000000000000e+01
0.0000000000000000e+00 2.8712000000000000e+01
ITEM: ATOMS x y z c_cna 
20.1087 11.5229 2.82691 5 
21.5311 12.1727 0.678808 5 
21.5311 9.94743 1.42342 5 
22.9535 11.5229 2.82685 5 
18.6969 12.9217 1.42816 5 
19.6934 14.5077 3.01438 5 
20.1087 14.3203 0.0293084 5 
22.9535 14.3203 0.0292462 5 
21.5311 13.6705 2.17727 5 
24.3653 12.9216 1.42801 5 
21.5311 15.8959 1.43276 5 
23.3688 14.5077 3.0142 5 
21.5312 12.9262 4.40262 5 
21.5312 15.7418 4.2486 5 
19.6935 11.3357 28.5541 5 
21.531 10.1013 27.3197 5 
23.3686 11.3355 28.554 5 
21.531 12.917 27.1656 5 
ITEM: TIMESTEP
27044
ITEM: NUMBER OF ATOMS
18
ITEM: BOX BOUNDS pp pp pp
0.0000000000000000e+00 2.8712000000000000e+01
0.0000000000000000e+00 2.8712000000000000e+01
0.0000000000000000e+00 2.8712000000000000e+01
ITEM: ATOMS x y z c_cna 
20.1087 11.5229 2.82691 5 
21.5311 12.1727 0.678808 5 
21.5311 9.94743 1.42342 5 
22.9535 11.5229 2.82685 5 
18.6969 12.9217 1.42816 5 
19.6934 14.5077 3.01438 5 
20.1087 14.3203 0.0293084 5 
22.9535 14.3203 0.0292462 5 
21.5311 13.6705 2.17727 5 
24.3653 12.9216 1.42801 5 
21.5311 15.8959 1.43276 5 
23.3688 14.5077 3.0142 5 
21.5312 12.9262 4.40262 5 
21.5312 15.7418 4.2486 5 
19.6935 11.3357 28.5541 5 
21.531 10.1013 27.3197 5 
23.3686 11.3355 28.554 5 
21.531 12.917 27.1656 5 
