ITEM: TIMESTEP
27000
ITEM: NUMBER OF ATOMS
2001
ITEM: BOX BOUNDS pp pp pp
0.0000000000000000e+00 2.8712000000000000e+01
0.0000000000000000e+00 2.8712000000000000e+01
0.0000000000000000e+00 2.8712000000000000e+01
ITEM: ATOMS x y z 
1.53597 1.45054 1.2954 
2.95646 2.97581 2.72096 
0.0554775 3.03295 2.75089 
0.0694826 2.89768 0.152292 
3.03236 2.87892 0.0947769 
4.29929 1.37111 4.08978 
4.42459 1.29932 1.48429 
7.37715 1.4968 1.5162 
5.65757 2.7046 2.89848 
5.76906 0.0193658 0.0506222 
5.71378 2.88356 0.110955 
10.0064 1.41664 1.25839 
8.67626 2.84814 2.95761 
11.4723 2.83807 2.83134 
11.6704 0.127182 2.69814 
8.65663 0.0259055 2.78326 
12.936 1.67439 1.2776 
15.7182 1.45888 1.38686 
14.2963 2.98664 2.92999 
14.2104 0.220445 2.95591 
14.2956 0.135101 0.0142322 
14.461 2.88143 0.0206136 
18.6532 1.49522 1.45194 
17.1248 2.88371 2.97717 
20.0705 3.04683 3.01482 
17.2151 0.00689124 2.88137 
20.1427 0.0713464 2.91009 
20.0183 0.0260793 0.0796936 
21.6276 1.50829 1.28109 
24.4803 1.23436 1.48094 
23.0151 2.83725 2.80084 
27.3671 1.34893 1.3729 
27.2293 1.44808 4.04919 
25.8446 2.77206 2.74752 
28.6943 0.0543779 0.0408648 
1.41484 4.474 1.39838 
1.41603 7.3461 1.45269 
2.81863 5.84307 2.83131 
2.92888 5.81545 0.093031 
4.38658 4.24966 1.29805 
7.2572 4.27126 1.34513 
4.18012 7.12175 1.50022 
7.264 6.87403 1.27169 
5.67839 5.74574 2.75009 
9.96798 4.19118 1.25753 
10.0631 7.1038 1.39981 
8.59443 5.71903 2.69525 
11.5751 5.79401 2.77722 
12.7363 4.39797 1.29883 
15.8907 4.25759 1.42486 
13.0615 7.13296 1.42698 
15.8814 7.1108 1.38553 
14.3466 5.56771 2.87036 
18.7167 4.27706 1.50103 
18.6712 7.27787 1.3817 
17.2001 5.71904 2.95903 
20.1927 5.93598 2.66675 
20.0096 5.78234 0.0198874 
24.4052 4.27759 1.3854 
21.5522 4.37681 1.62839 
21.562 7.26107 1.24522 
21.4983 7.13664 4.03989 
23.0212 5.89254 2.80412 
24.3974 7.26672 1.44869 
28.7016 5.78503 2.99299 
27.2251 4.30887 1.23137 
27.3581 7.00149 1.27756 
25.9265 5.68725 2.76617 
1.42856 10.0389 1.46665 
2.81902 8.61301 2.81845 
2.78499 11.4365 2.83236 
2.91606 8.64962 0.049992 
2.83524 11.4923 0.0569669 
4.4424 10.0401 1.58038 
7.29678 9.95503 1.36928 
5.8068 8.49607 2.85686 
5.9164 11.662 2.73212 
5.80557 11.376 0.0127967 
5.67612 8.49279 0.201353 
9.95061 9.96351 1.45045 
8.71739 8.55038 2.81418 
11.4622 8.57148 2.87788 
8.7366 11.4463 2.95494 
11.3589 11.2786 3.00321 
11.3686 11.4177 0.0199835 
11.3762 8.71173 0.203968 
8.65905 11.5148 0.0885708 
12.8254 10.0132 1.48154 
15.7454 10.0241 1.38943 
14.3668 8.4168 2.68934 
14.3309 11.5651 2.84013 
14.1936 11.3646 0.00792007 
14.2346 8.74558 0.0164055 
18.7557 10.0551 1.48486 
17.2651 8.55293 2.98907 
18.8098 10.0544 4.08 
20.2436 8.49655 2.79661 
17.218 11.4419 2.87618 
20.2247 11.5789 2.78901 
21.5796 12.2826 0.608228 
21.656 9.95051 1.24691 
24.5563 10.1462 1.53125 
21.5149 9.99892 4.03948 
23.0283 8.72194 2.65402 
22.9005 11.5571 2.71272 
25.8758 8.4352 0.104617 
28.5712 8.63953 3.00006 
28.6952 11.5703 2.93932 
27.3392 10.0797 1.4015 
25.8981 8.46684 2.76468 
25.8671 11.4955 3.05301 
1.31318 12.7389 1.44059 
1.5265 15.8172 1.20267 
2.99383 14.2604 2.82003 
5.76851 14.4613 0.109187 
4.31426 15.8783 1.30628 
4.36494 12.8753 1.53876 
7.26663 12.9104 1.24858 
7.19303 15.655 1.58042 
5.66712 14.419 2.81945 
8.55921 14.5932 0.0739516 
10.0926 12.9576 1.4229 
10.1355 15.9869 1.5865 
8.80014 14.3191 2.93876 
11.6222 14.3131 3.00032 
11.4061 14.3775 0.161271 
12.8271 12.8496 1.34379 
15.5485 12.9203 1.42551 
12.9087 15.9246 1.51987 
15.7868 15.8944 1.46814 
14.3203 14.253 2.81951 
14.1999 14.4751 0.0144758 
17.2063 14.4042 0.0319359 
18.7 12.8821 1.5143 
18.7617 15.6408 1.43089 
17.2296 14.2981 2.83255 
19.6045 14.512 3.15326 
22.9716 14.3057 0.0276255 
21.3523 13.7359 2.16354 
24.3866 12.8677 1.23725 
21.6453 15.8877 1.3241 
23.4398 14.3674 2.74496 
24.4439 15.7662 1.41749 
28.6263 14.3006 2.75024 
27.2203 12.8566 1.47823 
27.2268 15.7297 1.20774 
25.9282 14.512 2.87016 
1.39501 18.7869 1.48936 
2.84337 17.2376 2.93192 
2.89245 20.1282 2.7957 
0.111664 17.0508 2.67517 
2.88369 20.0597 0.0124864 
5.77319 19.983 0.241524 
4.30117 18.6155 1.44748 
7.26569 18.5942 1.6031 
5.73372 17.2744 2.78731 
5.68938 20.0729 2.77691 
8.24811 17.1882 0.0392238 
10.1085 18.7291 1.21474 
8.59807 17.1282 3.0445 
11.6321 17.3025 2.98114 
8.68531 19.8354 2.87923 
11.5399 20.1303 2.98766 
11.564 17.5555 0.130529 
13.2501 18.8352 1.45144 
15.8995 18.7712 1.52734 
14.3646 17.2446 2.88948 
14.4686 20.2366 3.06708 
14.6169 17.2111 0.107261 
18.6619 18.5685 1.48104 
17.228 17.3009 2.85652 
20.1918 17.1397 3.07022 
17.3562 19.9544 3.10828 
20.037 20.0052 3.06756 
20.0761 20.1468 0.0880233 
17.287 20.1413 0.0306971 
20.0241 17.1932 0.190714 
21.3377 18.6516 1.50275 
24.2068 18.6374 1.49918 
22.9428 17.399 3.0001 
22.9151 20.0279 2.67334 
22.8687 20.0799 0.0902762 
28.5511 20.0871 2.81001 
27.227 18.7536 1.35377 
25.8371 17.1862 2.83897 
25.8233 19.9065 2.81463 
2.83092 22.7888 0.00267302 
1.30382 21.4271 1.47037 
1.44173 24.2953 1.36999 
1.31666 21.5872 4.02747 
2.84871 22.8693 2.76964 
0.047119 22.8698 2.71874 
4.40589 24.333 1.49514 
4.30043 21.4656 1.33749 
7.15703 21.2739 1.43585 
7.33168 21.2751 4.09153 
5.7186 22.8883 2.84495 
7.2448 24.2682 1.32393 
10.0815 21.2147 1.4278 
8.63538 22.795 2.6854 
11.2865 22.8893 2.88255 
10.1333 24.257 1.51552 
11.5536 22.97 0.0545273 
8.65082 22.8728 0.0136528 
13.0082 21.5598 1.40958 
15.7759 21.7727 1.31979 
14.2525 23.0479 2.98492 
12.8858 24.4584 1.60972 
15.7571 24.4638 1.46358 
14.1942 23.1822 0.0324925 
18.5433 21.4673 1.54214 
18.6183 24.5462 1.37493 
17.2295 23.1107 2.96073 
20.0982 22.7907 2.86379 
21.6139 21.7627 1.27071 
24.335 21.4726 1.35566 
21.4623 24.2715 1.35434 
24.324 21.3747 3.9702 
22.8689 22.9311 2.88733 
24.4576 24.2322 1.35307 
27.1424 21.4352 1.42909 
27.0652 21.4737 4.09383 
25.665 22.9392 2.75971 
27.0899 24.213 1.50186 
2.83849 28.6243 2.87011 
1.36724 27.261 1.29232 
2.71459 25.7671 2.82406 
0.0403343 25.6911 2.90288 
5.95702 28.5561 2.8921 
4.22753 27.2313 1.53898 
7.27981 27.1509 1.55606 
5.76408 25.8357 2.79267 
5.78692 25.8976 0.156156 
10.1073 27.328 1.54178 
8.50326 25.7336 2.81613 
11.5255 26.0618 2.95336 
11.4191 25.8006 0.153604 
8.69695 25.8054 0.0456221 
11.2942 28.6646 0.15046 
13.1093 27.407 1.68909 
15.7128 27.228 1.50817 
14.3841 25.9939 2.9103 
17.1895 28.5068 0.0182565 
18.6864 27.2143 1.50004 
17.1173 25.852 2.89918 
20.0778 25.8365 2.88751 
17.2271 25.873 0.00380152 
23.0335 28.6695 2.72151 
21.5132 27.1983 1.38756 
23.0487 25.8152 2.69578 
24.3993 27.1981 1.33029 
25.9572 28.6318 2.86706 
28.7064 28.6901 2.7862 
27.2812 27.1286 1.30622 
25.9229 25.7127 2.85969 
1.55742 1.60496 4.28251 
1.52222 1.35879 7.11724 
2.8889 2.96308 5.67413 
0.0569853 2.65358 5.74497 
7.31023 1.36494 4.22191 
4.2229 1.32628 6.8584 
7.0569 1.34657 7.0734 
5.71093 2.95514 5.73471 
5.75653 0.0255646 5.6744 
10.1277 1.2266 4.30836 
10.2172 1.2856 7.26541 
8.6858 2.65344 5.81683 
11.4592 2.84801 5.79261 
8.75278 0.0521465 5.75186 
12.8166 1.48639 4.41916 
15.8795 1.37571 4.20444 
12.8338 1.36043 7.38778 
15.6475 1.4723 7.491 
14.3589 2.83633 5.76167 
14.4417 0.0319527 5.74946 
18.6465 1.53584 4.32741 
18.7011 1.53776 7.20137 
17.1228 2.82033 5.85828 
20.0418 2.95328 5.74067 
20.0424 0.0888152 5.72169 
17.097 0.120815 5.96378 
21.5643 1.56168 4.25969 
24.3493 1.50755 4.36618 
21.5423 1.39312 7.05495 
24.2691 1.60486 7.1689 
22.9098 2.96456 5.73396 
22.9214 0.280309 5.70927 
27.3024 1.43149 7.20498 
25.7959 2.82632 5.60827 
25.9761 0.129525 5.67818 
1.47962 4.11854 4.18401 
1.28776 7.2881 4.3103 
1.46968 4.26802 7.04898 
1.38254 7.01949 7.19714 
2.83124 5.69413 5.55951 
4.21182 7.27696 4.25974 
7.15381 4.19173 4.10236 
4.35259 4.2597 4.20161 
7.33805 7.14999 4.21783 
4.2978 7.06086 7.23832 
4.207 4.39273 7.17268 
7.06315 4.32594 7.16891 
5.74906 5.75348 5.57383 
7.21023 7.14333 7.21291 
9.96583 4.11217 4.35161 
10.0186 7.21266 4.3726 
9.95364 4.38314 7.17427 
8.55403 5.54745 5.72362 
9.92769 7.27322 7.04786 
11.4014 5.61706 5.7474 
15.7388 4.44279 4.39572 
12.845 4.38925 4.34803 
12.8859 7.14189 4.2929 
15.8278 7.25865 4.36209 
12.7551 4.17768 7.07063 
15.7146 4.30772 7.15314 
12.8543 7.29267 7.24556 
14.2394 5.77461 5.80098 
15.6999 7.23069 7.3458 
18.5438 4.29632 4.44206 
18.6562 7.1693 4.36196 
18.6748 4.42497 7.14671 
17.2278 5.84084 5.69179 
18.6755 7.14006 7.14948 
20.0209 5.76965 5.74409 
21.5926 4.49102 4.20721 
24.2669 4.34736 4.20593 
24.3053 7.19011 4.27731 
21.5093 4.1883 7.03574 
21.5367 7.4069 7.13282 
22.781 5.90196 5.84539 
24.3908 7.24327 7.20111 
24.36 4.33747 7.12868 
27.1628 4.2 4.23241 
27.1123 7.04477 4.27434 
28.6843 5.61868 5.65725 
27.2534 4.13881 7.03007 
25.7013 5.6492 5.66604 
27.0806 7.01474 6.95874 
1.53585 9.9843 4.31615 
1.23564 10.0245 7.24822 
2.92803 8.73338 5.83032 
2.87342 11.4489 5.84415 
4.52353 10.2586 4.17759 
7.11673 10.1341 4.24065 
4.31071 10.0873 7.24274 
5.77084 8.52832 5.71493 
7.36283 10.1437 7.02668 
5.68234 11.6706 5.75146 
10.0554 9.87015 4.42391 
8.56935 8.70863 5.82196 
10.1452 10.1945 7.27963 
11.3978 8.68707 5.83848 
8.7494 11.4563 5.6641 
11.5447 11.5764 5.71393 
12.9101 9.94053 4.16946 
15.7402 10.1734 4.18154 
12.8229 10.1042 7.25243 
14.3409 8.56035 5.77075 
15.6385 9.84446 7.25317 
14.4927 11.2893 5.85175 
17.3474 8.82723 5.48703 
18.5828 10.0834 7.08143 
20.2128 8.55993 5.53253 
17.2095 11.6153 5.84539 
19.957 11.5049 5.71577 
24.2642 10.1691 4.13006 
21.4727 10.0276 7.14786 
22.7818 8.78878 5.58414 
23.0974 11.5407 5.70225 
24.3966 9.9313 7.29744 
27.0714 9.87644 4.43484 
28.515 8.54211 5.72959 
28.6129 11.4606 5.6707 
25.5356 8.58703 5.57338 
27.151 9.91975 7.13856 
25.8543 11.4164 5.86291 
1.63913 12.8483 4.50866 
1.46791 15.7562 4.3923 
1.40781 12.925 7.15842 
1.4464 15.7581 7.38604 
2.87393 14.2867 5.94096 
4.15433 13.0172 4.34359 
4.33771 15.799 4.20761 
7.02263 13.0074 4.15289 
7.06446 15.8369 4.32845 
4.15101 12.7734 7.35911 
7.16439 12.8663 7.17212 
4.3132 15.8742 7.26907 
5.83422 14.2506 5.70547 
7.02886 15.8219 7.29298 
9.90045 13.1413 4.48199 
10.0471 15.8948 4.43514 
10.1663 12.8139 7.26882 
8.51942 14.4393 5.65332 
10.1407 15.797 6.90723 
11.8785 14.2169 5.70989 
12.8565 12.7325 4.23241 
15.7897 12.7942 4.27107 
12.963 15.8942 4.4096 
15.9223 15.723 4.24955 
12.958 12.7805 7.05051 
15.7293 12.9318 7.44818 
12.9063 15.5855 7.1659 
14.5442 14.1313 5.75052 
15.9023 15.6295 7.30136 
18.52 12.8569 4.34145 
18.5018 15.9287 4.38165 
18.5349 13.0166 7.28138 
17.1715 14.2427 5.74901 
18.5413 15.6733 7.19377 
19.8791 14.5631 5.74274 
21.4089 12.9147 4.38137 
21.5079 15.674 4.26309 
24.437 15.8816 4.3387 
21.4583 12.9472 7.01043 
21.5845 15.6273 7.17249 
22.9721 14.2933 5.58714 
24.259 15.7517 7.08321 
24.4039 13.04 7.23317 
24.6877 12.8376 4.39938 
27.3772 12.9351 4.26118 
27.3295 15.8579 4.29484 
28.7088 14.2098 5.75367 
27.2269 12.79 7.212 
25.862 14.4146 5.78752 
27.2869 15.7259 7.04134 
1.38672 18.6345 4.31426 
1.41247 18.7936 7.2158 
3.06559 17.2202 5.74486 
2.63137 20.2624 5.61562 
0.0965817 20.2026 5.65914 
0.0809511 17.1453 5.7284 
4.1655 18.6737 4.31378 
7.08767 18.6226 4.35964 
4.24085 18.755 7.13228 
5.71639 17.0739 5.91787 
7.13109 18.6901 7.10533 
5.66767 19.9242 5.70853 
10.0725 18.5177 4.25492 
8.59384 17.0888 5.69448 
10.1275 18.6346 7.12273 
11.4959 17.1824 5.71251 
8.67254 20.2063 5.85797 
11.5468 19.935 5.52753 
12.9724 18.697 4.30393 
15.9711 18.6968 4.53383 
13.1436 18.4341 7.04923 
14.6167 17.0445 5.90591 
15.9064 18.696 7.38282 
14.5084 20.2307 5.77473 
18.723 18.5827 4.44705 
17.2721 17.2563 5.84281 
18.7589 18.8525 7.28386 
20.0881 17.1837 5.81601 
17.3258 20.0587 5.72951 
20.0289 20.2046 5.70539 
21.492 18.6662 4.30933 
24.3937 18.7625 4.31199 
21.57 18.5864 6.99687 
23.1316 17.195 5.84005 
23.0498 20.1653 5.58185 
27.2454 18.5535 4.27149 
24.645 18.7057 7.34381 
25.6733 17.2913 5.67179 
27.3728 18.8192 7.18629 
25.8034 20.1038 5.61904 
1.44283 24.2899 4.24824 
1.53629 21.4807 7.47032 
2.68638 22.7262 5.77023 
1.31714 24.242 7.17418 
4.25706 21.6171 4.26195 
7.22893 24.3439 4.23207 
4.31094 24.378 4.24849 
4.29112 21.5483 7.15973 
7.20805 21.5012 7.11414 
4.30314 24.209 6.98094 
5.86753 22.6136 5.42863 
6.9753 24.3085 6.95831 
9.93999 21.4665 4.30031 
10.103 24.5438 4.26987 
10.1621 21.4783 7.22894 
8.74581 23.0996 5.66314 
9.97531 24.3669 7.34192 
11.4695 23.0846 5.83738 
12.8347 21.5144 4.26797 
15.8005 21.7403 4.40526 
15.838 24.5935 4.32714 
12.9399 24.5522 4.17727 
12.9489 21.5237 7.04378 
15.8209 21.8826 7.12795 
14.2 23.0926 5.72746 
15.8398 24.5432 7.27821 
13.0033 24.4389 7.20066 
18.7024 21.5336 4.32402 
18.4797 24.541 4.22933 
18.6943 21.897 7.11437 
17.2574 23.1768 5.60315 
20.1379 23.1082 5.551 
18.8659 24.5576 7.30044 
21.5893 21.4148 4.32641 
24.4989 24.4968 4.1132 
21.7279 24.5478 4.27723 
21.5673 21.658 7.11083 
21.5585 24.4553 7.11051 
23.2753 22.9394 5.57586 
24.5238 24.4903 7.18428 
27.3218 24.3014 4.31194 
24.6841 21.6044 7.28223 
28.7024 22.972 5.71009 
27.4742 21.4509 7.2009 
25.754 23.0731 5.74179 
27.1903 24.1416 7.22334 
1.45882 27.3352 4.22807 
2.73698 28.5417 5.63428 
1.32435 27.2093 7.15575 
2.90409 25.6814 5.75738 
0.0998135 28.6355 5.70207 
0.0422364 25.681 5.55931 
4.30789 27.4144 4.37996 
7.33826 27.2878 4.49493 
4.14391 27.3492 7.09159 
5.63636 25.8188 5.53853 
7.06194 27.2642 7.23895 
10.0626 27.2177 4.19792 
11.3901 28.6755 5.85259 
8.54255 25.8149 5.93072 
9.8746 27.3381 7.22939 
11.3281 25.969 5.83385 
12.7393 27.4808 4.45335 
15.7611 27.2317 4.33207 
12.9109 27.3841 7.36487 
14.2219 25.9468 5.88625 
15.9017 27.2815 7.16293 
18.7191 27.3119 4.30292 
17.3169 25.9424 5.80466 
18.6653 27.3293 7.15344 
19.9748 25.8824 5.75432 
21.5485 27.2831 4.23289 
24.5223 27.3761 4.19622 
21.561 27.4242 6.93948 
23.0599 25.9668 5.67101 
24.3141 27.3985 7.1913 
27.2605 27.183 4.35564 
25.9271 25.9191 5.74398 
27.3644 27.2859 7.119 
2.58368 3.06456 8.59244 
1.50489 1.60233 10.0073 
2.83548 2.94143 11.3222 
2.74021 0.0549662 11.3593 
0.00994038 0.12999 11.3966 
5.51351 2.87255 8.42019 
4.18538 1.53595 10.0035 
7.07448 1.46128 10.2114 
5.70381 2.93988 11.3741 
8.54882 2.82362 8.83724 
11.3606 2.82145 8.60078 
8.42139 0.113516 8.66315 
10.0149 1.62206 10.0916 
8.60626 3.00343 11.4046 
11.4511 3.07593 11.3908 
8.61242 0.0964493 11.4929 
14.1084 2.83969 8.66855 
12.8574 1.33469 10.1013 
15.658 1.37956 10.1658 
14.4587 2.84928 11.5942 
17.1307 2.81341 8.70051 
20.1258 2.85589 8.3838 
20.1358 0.0707194 8.57021 
17.258 0.0733564 11.4782 
18.7643 1.48518 10.0169 
17.2859 2.83495 11.4429 
20.138 2.86418 11.2735 
22.9523 3.05011 8.61101 
22.7862 0.140329 8.59057 
22.9167 0.123965 11.1877 
21.6657 1.51013 9.90761 
24.3796 1.50738 9.94421 
22.8529 2.95812 11.4059 
28.6449 2.8892 8.51874 
25.7248 2.85662 8.5283 
28.5169 2.97468 11.2398 
25.8145 0.0332888 11.287 
27.2814 1.49403 9.90241 
25.8979 2.90856 11.4404 
2.85477 5.62991 8.49691 
1.32379 4.48989 9.92167 
1.30147 7.0532 9.94016 
2.72818 5.61681 11.3287 
5.78472 5.70928 8.65971 
4.17537 4.33621 9.97129 
4.39335 7.0738 10.0856 
6.99224 4.19076 10.0692 
7.03501 7.14243 10.1118 
5.52439 5.7285 11.5665 
8.64203 5.73237 8.57926 
11.4976 5.80658 8.48691 
9.92782 4.45058 9.97005 
9.99351 7.28499 10.0505 
8.39621 5.60468 11.5037 
11.377 5.70123 11.5473 
14.5404 5.67358 8.69078 
15.8961 4.22971 10.0744 
12.9316 4.39093 9.93591 
12.7838 7.17507 9.93523 
15.7981 7.1135 10.2146 
14.1922 5.6977 11.5271 
17.3233 5.71975 8.58641 
19.9504 5.78726 8.74951 
18.8587 4.24533 9.97034 
18.5407 7.22154 10.0535 
17.2759 5.59913 11.4892 
20.1316 5.76089 11.3253 
22.9332 5.74512 8.53181 
21.4343 4.3024 9.85644 
21.3232 7.26131 9.92321 
22.9023 5.80818 11.4411 
24.2422 7.05572 10.0332 
24.2825 4.44276 10.1361 
28.6678 5.73944 8.50748 
25.7138 5.74377 8.50134 
28.6497 5.86786 11.5753 
27.1994 4.38786 9.82114 
26.9931 7.12714 10.1291 
25.804 5.85067 11.5569 
2.95246 8.45508 8.52142 
2.71121 11.2532 8.76317 
1.45676 9.93448 10.0894 
3.07836 8.60046 11.3972 
2.93038 11.62 11.6259 
5.74651 8.48596 8.47052 
5.96091 11.6 8.77887 
4.34424 10.0072 9.93592 
7.19558 9.94754 10.1551 
5.69131 8.71977 11.4791 
5.68443 11.5605 11.396 
8.39165 8.66403 8.56015 
11.3922 8.74239 8.57763 
8.47359 11.5164 8.87755 
11.495 11.5344 8.69691 
9.93898 10.0586 10.0934 
8.35716 8.49832 11.5527 
11.5235 8.671 11.6871 
8.67837 11.5313 11.663 
11.3741 11.4826 11.5233 
14.1597 8.64894 8.74429 
14.1791 11.5309 8.71406 
13.0364 10.1946 10.1649 
15.6455 10.1867 10.1188 
14.4167 8.55319 11.5729 
14.3783 11.5942 11.6021 
17.1417 8.61368 8.6946 
19.9721 8.71534 8.519 
17.2014 11.4134 8.69272 
20.1415 11.4733 8.58774 
18.6697 10.1114 9.9498 
17.0621 8.63696 11.3857 
19.9966 8.52615 11.4036 
17.3164 11.5888 11.5705 
19.9993 11.3868 11.5473 
22.9402 8.62616 8.63704 
22.8355 11.3916 8.72975 
21.5268 9.84379 10.1194 
22.8506 8.3314 11.378 
22.731 11.3919 11.5526 
24.2906 9.90265 10.0963 
28.6882 11.5163 8.72515 
28.6791 8.43188 8.6198 
25.801 8.58689 8.60801 
25.7576 11.3638 8.69645 
28.6479 8.52579 11.3956 
28.6787 11.4558 11.4225 
27.2738 9.84535 10.0704 
25.7794 8.56102 11.526 
25.8379 11.3847 11.4705 
2.76495 14.1118 8.65402 
0.0204835 14.3418 8.79471 
1.48992 12.9244 10.1228 
1.68857 15.8518 10.073 
2.93083 14.4446 11.5779 
0.0885378 14.2756 11.5847 
5.68245 14.1948 8.59989 
4.17231 12.8211 10.0722 
7.17 12.8889 10.2742 
4.28671 15.7704 10.0588 
7.17938 15.9102 10.0796 
5.84839 14.2838 11.4388 
8.54787 14.4866 8.54068 
11.4486 14.3825 8.70237 
10.1172 12.8737 10.1324 
10.0261 15.8074 9.85161 
8.69208 14.3549 11.5387 
11.5372 14.4761 11.4404 
14.3381 14.2425 8.7407 
12.7448 13.2389 10.1147 
15.7712 12.8898 10.2271 
12.8359 15.729 10.0187 
15.9384 15.672 10.082 
14.2033 14.4235 11.6734 
17.1401 14.2331 8.8448 
19.8202 14.4373 8.70523 
18.6269 12.8948 10.1279 
18.579 15.8159 10.1862 
17.1602 14.4435 11.5749 
20.0924 14.2594 11.5914 
23.0117 14.3269 8.76904 
21.5512 12.9343 10.0547 
21.5266 15.6937 10.1194 
22.9253 14.1765 11.4527 
24.4404 15.7737 9.8704 
24.3341 12.6217 10.1736 
25.9906 14.3077 8.53954 
27.236 12.8431 10.2017 
27.3821 15.8651 10.2848 
25.7683 14.3748 11.3752 
2.9113 17.4804 8.59012 
3.06187 20.1286 8.7063 
0.0042868 20.1808 8.65446 
0.0183568 17.3494 8.59648 
1.39805 18.6904 10.1087 
2.87436 17.2418 11.5182 
2.92794 20.1552 11.577 
0.10592 20.1005 11.4643 
0.0721665 17.2518 11.633 
5.77638 17.3604 8.62403 
5.69888 20.1009 8.55652 
4.32259 18.6459 10.1524 
7.23461 18.6428 9.82538 
5.78677 17.1849 11.6367 
5.77799 20.1022 11.4989 
8.72918 17.1771 8.45452 
11.48 17.2821 8.58157 
8.70882 20.1061 8.55241 
11.6149 20.0273 8.52869 
10.1529 18.6759 9.96249 
8.52955 17.073 11.4866 
11.419 17.2648 11.4717 
8.75245 19.9195 11.3904 
11.4512 20.1422 11.4552 
14.4799 17.0861 8.73315 
14.3801 19.9626 8.62185 
12.9354 18.6536 10.0865 
15.9009 18.8055 10.1952 
14.5184 17.0777 11.4416 
14.2861 20.1353 11.2283 
17.215 17.4384 8.82816 
20.1868 17.0813 8.50275 
17.2637 20.3762 8.42128 
20.019 20.2445 8.55394 
18.8838 18.6457 9.90439 
17.3771 17.204 11.6271 
20.1955 17.247 11.3514 
17.1588 20.0885 11.6207 
19.9533 20.3122 11.3181 
22.9619 17.1695 8.58107 
22.8534 20.2158 8.65513 
21.5808 18.6845 10.0359 
23.1138 17.1924 11.4657 
23.0024 20.1763 11.4681 
24.4772 18.8348 10.1873 
25.7584 17.1279 8.58014 
25.9339 19.9112 8.77398 
27.3343 18.7307 10.2256 
25.8091 17.1719 11.5041 
25.7229 20.1205 11.6513 
3.05915 23.061 8.75716 
0.0166713 22.981 8.68987 
1.30682 24.4165 9.9753 
1.52099 21.4577 9.95868 
2.88721 22.8917 11.3485 
5.76191 23.0501 8.52906 
4.3065 24.347 10.0115 
7.22588 24.4231 10.0793 
4.57585 21.5054 10.1029 
7.1934 21.4985 10.022 
5.75853 22.8919 11.6662 
8.67525 22.9274 8.55727 
11.5367 22.9652 8.56393 
10.085 24.2446 10.0355 
10.2309 21.4588 10.0713 
8.55232 22.7677 11.4427 
11.558 22.8075 11.524 
14.4009 22.8869 8.55746 
12.8488 21.6033 9.84233 
15.8395 21.6924 10.2003 
12.9181 24.4028 9.85895 
15.8425 24.3622 10.087 
14.353 22.9794 11.3681 
17.1024 23.1414 8.6366 
20.2267 22.9076 8.64384 
18.7761 21.7451 9.96266 
18.9657 24.5473 9.87827 
17.3068 23.0115 11.4581 
20.0336 23.096 11.5157 
23.094 23.0052 8.54299 
21.6866 24.2035 10.1756 
24.4092 21.6444 10.1124 
23.1208 22.8725 11.5676 
21.5854 21.6246 9.90794 
24.335 24.4307 9.98994 
25.931 22.8269 8.75402 
27.1659 21.5767 10.2575 
28.7005 22.9184 11.2284 
25.8182 23.1667 11.4592 
27.1782 24.3383 10.0002 
2.70667 28.6259 8.51724 
2.95957 25.736 8.64664 
0.0304353 25.7855 8.54436 
0.0101039 25.7473 11.2835 
1.36008 27.2733 9.99766 
2.81873 25.6428 11.4264 
5.5876 28.7024 8.63843 
5.92342 25.7489 8.54632 
5.68635 28.6971 11.4465 
5.70033 25.667 11.3609 
7.09851 27.2699 10.0564 
4.21099 27.3029 9.92979 
11.2673 28.5968 8.93556 
8.69487 25.8112 8.60725 
11.3915 25.8734 8.54921 
11.4929 25.7438 11.4464 
8.61346 25.9223 11.6075 
9.98302 27.2194 10.2221 
11.4096 28.6546 11.5911 
14.3632 28.5296 8.59648 
14.3825 25.9239 8.65497 
14.3144 25.8917 11.4976 
15.7144 27.2356 10.0579 
12.8696 27.1759 10.0766 
14.322 28.6848 11.3897 
17.2723 28.5721 8.94228 
17.1207 25.8023 8.67855 
20.2233 26.0505 8.53027 
20.1044 28.7028 11.5041 
17.2823 25.9321 11.4786 
18.7161 27.1627 10.0331 
20.107 25.8385 11.3844 
22.978 25.7683 8.63283 
21.5655 27.3275 10.071 
24.4528 27.2735 9.85529 
22.9568 25.7861 11.3725 
28.6114 28.6851 8.67608 
25.7498 28.6582 8.4453 
25.8669 25.8736 8.59738 
27.0652 27.2345 9.94006 
25.9805 25.7414 11.3654 
1.44075 1.53865 12.6782 
0.108203 2.82569 14.2924 
3.02105 3.06487 14.2521 
2.90998 0.11362 14.201 
1.42675 1.42388 15.7622 
4.21597 1.37631 12.7723 
7.27268 1.41575 12.8589 
5.67561 0.195642 14.3458 
5.70108 2.63427 14.3275 
4.13173 1.50615 15.9284 
7.33309 1.3878 15.8383 
11.4945 0.0955685 14.2805 
9.9251 1.46056 12.8772 
11.4198 2.86855 14.2492 
8.43368 2.95281 14.2106 
9.96394 1.47596 15.797 
12.9099 1.47141 12.7966 
15.9021 1.53393 12.8609 
14.2336 2.94938 14.2643 
12.7892 1.50824 15.7001 
15.6444 1.55825 15.8415 
18.6226 1.36819 12.9418 
18.6315 1.4387 15.7852 
20.0928 2.74533 14.4999 
17.3187 0.157654 14.5962 
17.1446 2.79009 14.4778 
21.5729 1.33466 12.8712 
24.4263 1.40735 12.7435 
21.5208 1.21108 15.836 
24.2297 1.21751 15.7871 
24.2689 4.02093 15.8932 
23.0099 2.93682 14.3616 
27.2719 1.53427 12.8983 
25.7403 2.68226 14.2949 
28.6634 0.0698095 14.2054 
27.4906 1.42201 15.928 
25.7726 0.11514 14.4069 
1.35897 4.2723 12.841 
1.56847 7.16044 12.8549 
1.43288 4.29018 15.5959 
1.34277 7.07208 15.9534 
2.7768 5.82612 14.3911 
4.3695 7.34529 12.9553 
4.23588 4.47739 12.912 
7.02256 4.19675 13.0723 
6.95613 7.20553 12.9037 
5.74362 5.71992 14.4563 
4.40429 7.17619 15.8021 
7.15015 4.23492 15.7406 
4.3801 4.29319 15.7676 
7.13785 7.38968 15.8147 
9.78845 4.43974 12.8728 
10.0524 7.03265 12.9806 
8.57079 5.71123 14.4728 
10.0337 4.2567 15.6816 
10.0026 7.15162 15.7709 
11.6129 5.74065 14.3803 
12.8651 4.28893 12.8385 
15.8107 4.3069 12.7783 
12.7108 7.21125 12.868 
15.7429 7.19918 12.8016 
14.237 5.69329 14.354 
12.721 4.27681 15.8412 
15.7556 4.40477 15.6527 
12.8356 7.0829 15.7617 
15.5696 7.1446 15.5133 
18.8134 4.18127 12.8855 
18.661 7.18907 12.8147 
17.1468 5.84067 14.3457 
18.5978 4.24801 15.8351 
18.6126 7.26067 15.8032 
19.8819 5.66391 14.4028 
24.4359 4.35304 12.8511 
21.4275 4.15331 12.9892 
21.4377 7.14222 12.8156 
24.1119 7.01968 12.9901 
21.423 4.23246 15.9253 
21.3908 7.13525 15.8508 
24.4726 6.98223 15.8761 
22.807 5.66798 14.4311 
27.3237 4.30044 12.9047 
27.2152 7.16804 12.8874 
27.2132 4.28081 15.6555 
27.3749 7.07097 15.8804 
25.9008 5.75843 14.4248 
28.6815 5.89646 14.3587 
1.55546 9.93091 12.6923 
0.164293 11.3917 14.0886 
2.96557 11.3744 14.3544 
2.87077 8.49334 14.4009 
1.40503 9.92241 15.7421 
4.20891 10.1008 12.8993 
7.2092 10.159 12.9842 
4.32284 9.87278 15.665 
7.23368 9.99161 15.7792 
5.67272 8.70126 14.3662 
5.8402 11.5454 14.4602 
9.99452 10.0416 12.9039 
8.59687 11.5309 14.3399 
8.44343 8.43971 14.2328 
11.5018 11.4548 14.2703 
10.1664 10.1336 15.6504 
11.3065 8.51969 14.4916 
12.8694 10.1183 13.1691 
16.031 10.1076 12.9929 
14.4238 8.65715 14.235 
14.4213 11.4004 14.3222 
12.9427 10.2186 15.9234 
15.8542 9.79287 15.6943 
18.5613 9.91894 12.8132 
20.1235 11.4641 14.2246 
17.2934 11.5537 14.3031 
17.248 8.56713 14.2395 
19.944 8.44097 14.3413 
18.5531 10.0798 15.7226 
21.4894 9.9874 13.0563 
24.1791 10.0655 12.7504 
22.7979 8.50892 14.2424 
21.3976 9.85801 15.8087 
24.5293 9.96428 15.8886 
22.5993 11.3467 14.4968 
27.008 9.88666 12.8457 
25.819 11.3656 14.1689 
25.7981 8.44919 14.2658 
28.7035 8.41913 14.2493 
27.254 9.85442 15.6088 
1.68709 12.9882 13.0129 
1.46029 15.8937 13.0217 
1.34783 12.8123 15.9146 
1.39078 15.7972 15.8052 
0.0265984 14.2067 14.3694 
2.98696 14.3589 14.6607 
4.40976 13.0034 12.9585 
7.31982 13.0202 13.0354 
4.42652 15.744 13.0397 
7.19834 15.8047 13.1031 
4.26915 15.7471 15.9086 
4.37051 12.8604 15.8841 
7.2196 12.8322 15.9482 
7.25349 15.8328 15.8214 
5.85693 14.3451 14.4101 
10.2557 12.8688 12.9248 
10.0832 15.8848 12.8026 
11.3991 14.353 14.3102 
8.61113 14.2471 14.5465 
10.1061 12.8826 15.7931 
10.0988 15.9214 15.7104 
12.8326 12.9593 12.9075 
15.7552 12.9272 13.0486 
12.9119 16.0276 12.7673 
15.9162 15.8555 13.0671 
14.3605 14.5363 14.4229 
12.8631 12.9542 15.7605 
15.7298 12.7541 15.7728 
12.7959 15.7388 15.8371 
15.7037 15.8588 15.7001 
18.6863 12.8514 13.0143 
18.8286 15.706 13.1969 
17.1679 14.29 14.3053 
18.6013 12.7377 15.8226 
18.5606 15.7438 15.8862 
20.0373 14.4441 14.6762 
21.4301 13.0593 13.048 
21.4906 15.7563 12.9519 
24.4209 12.7614 12.9036 
24.267 15.6122 12.8594 
21.5061 12.8246 16.0147 
24.4497 12.6397 15.839 
21.4205 15.8924 15.7022 
24.3089 15.7389 15.706 
22.9267 14.1126 14.5382 
25.7605 14.4942 14.2363 
27.1982 12.9816 12.9733 
27.3852 15.6334 12.9283 
27.2793 12.8326 15.8974 
27.3094 15.6224 15.8819 
0.181396 20.4062 14.1721 
1.67621 18.8344 12.9891 
1.61816 18.6439 15.9618 
2.95793 20.1621 14.464 
2.9566 17.3307 14.361 
4.46473 18.8179 12.8918 
7.24157 18.5562 12.7703 
5.70498 17.3435 14.27 
4.30287 18.6954 15.9013 
7.23091 18.6397 15.7725 
5.88978 20.1305 14.4868 
8.64489 17.1633 14.2619 
10.1519 18.8067 12.9434 
8.53009 19.9525 14.2982 
11.5477 17.3026 14.3492 
9.98111 18.6944 15.8561 
11.5052 20.1863 14.3829 
14.5346 17.4138 14.3221 
12.9897 18.5154 12.7154 
15.8207 18.642 12.9499 
14.3702 20.1669 14.2736 
13.072 18.7047 15.8491 
15.7363 18.7166 15.6628 
20.065 17.2847 14.2974 
18.6073 18.7518 12.9871 
18.7296 18.7644 15.9247 
17.0243 20.1292 14.3852 
20.1087 20.2033 14.3685 
17.4377 17.3286 14.3615 
21.5595 18.8346 12.8954 
24.4432 18.4899 12.8406 
22.9696 17.1455 14.2794 
22.9568 20.0365 14.321 
21.6072 18.7494 15.9614 
24.5204 18.5543 15.7545 
27.3511 18.5488 13.0101 
27.4778 18.7444 15.9184 
25.9405 17.151 14.4363 
26.054 20.1036 14.5645 
28.6814 17.2918 14.5285 
1.51616 21.4835 12.6023 
1.49554 24.405 12.9984 
2.93213 23.0209 14.2705 
1.49049 21.6068 15.9705 
1.52692 24.5556 15.6279 
0.0497564 23.0496 14.4302 
4.29914 21.5056 13.0349 
7.26597 21.5276 12.8911 
4.31974 24.3557 12.9857 
7.33963 24.3274 13.0062 
5.77343 22.9567 14.3088 
4.39789 24.4696 15.8354 
4.41251 21.7098 15.8193 
7.25964 21.7128 15.6609 
7.25201 24.3791 15.7229 
10.0594 24.3783 12.8838 
9.97457 21.4088 12.9847 
8.81704 23.0518 14.3112 
10.118 21.5357 15.8339 
10.0676 24.4105 15.8498 
11.4738 22.9675 14.487 
15.8801 24.4749 12.7935 
12.777 21.3298 12.9449 
15.7199 21.4565 12.8839 
12.9113 24.3151 12.876 
14.3094 23.016 14.2248 
13.0994 21.6522 15.7449 
15.6081 21.6489 15.8408 
13.0321 24.4605 15.662 
15.6444 24.3164 15.6797 
17.1841 23.1326 14.2767 
18.8303 21.7011 12.9842 
18.6401 24.5338 12.8062 
18.4875 21.6616 15.8203 
18.3697 24.415 15.9071 
20.0831 23.0625 14.4239 
24.3787 24.5672 12.7608 
21.5116 24.393 12.9826 
24.4375 21.5327 13.1647 
21.4222 21.5128 12.8312 
21.4623 21.5191 15.7047 
24.4078 21.4359 15.6625 
21.6201 24.396 15.8452 
23.0071 22.8365 14.3856 
27.4426 24.3173 12.8754 
27.3028 21.6489 13.0243 
27.3226 21.6737 15.7478 
27.279 24.4791 15.7893 
25.6925 23.141 14.4034 
0.0926135 26.0991 14.168 
1.46302 27.1768 12.7849 
2.92309 25.948 14.3366 
1.31024 27.4049 15.8452 
7.08598 27.3333 12.7791 
4.23259 27.3065 12.7161 
5.90739 25.7895 14.1845 
4.31506 27.2969 15.7116 
7.13065 27.3832 15.6712 
10.0259 27.1739 12.882 
11.5175 25.864 14.2153 
8.52155 28.5657 14.2735 
8.66014 25.8088 14.3419 
10.1749 27.2647 15.7019 
15.8214 27.3112 12.8702 
13.0595 27.3363 12.9698 
14.4015 28.6308 14.354 
14.3825 25.8189 14.2645 
12.9411 27.2597 15.7383 
15.7445 27.27 15.6822 
18.6735 27.306 13.0622 
19.9706 28.6642 14.4271 
18.8071 27.2264 15.8095 
20.1031 25.7321 14.5687 
17.1732 25.939 14.477 
24.4503 27.1257 12.5337 
21.5482 27.3085 12.9588 
23.1203 28.6571 14.1197 
24.2804 24.6157 15.8845 
21.533 27.3823 15.7216 
24.4924 27.5025 15.9327 
22.9308 25.905 14.3581 
27.2861 27.3633 12.675 
27.1052 27.2718 15.7308 
25.6099 25.843 14.4491 
1.63908 1.50252 18.5155 
2.79176 3.13307 17.3427 
2.93488 0.044554 17.3139 
2.87395 2.79707 20.2349 
0.00845188 2.60677 20.0509 
2.67058 0.0388115 20.0295 
4.19748 1.43963 18.6213 
7.02935 1.42168 18.5933 
5.62973 3.01083 17.3527 
5.69464 2.8163 20.1252 
5.57746 0.155793 20.0383 
10.1288 1.48429 18.644 
8.65482 2.85663 17.2508 
11.3352 2.98111 17.0915 
11.5852 0.100502 17.196 
8.52917 2.83707 20.0628 
11.4394 2.85524 20.1199 
11.3744 0.128586 20.0701 
8.57522 0.137204 20.0375 
12.7516 1.45617 18.6113 
15.6722 1.50976 18.6037 
14.2829 2.97605 17.0811 
14.2188 0.076944 17.2348 
14.172 2.92775 20.3231 
14.4083 0.0552718 20.1837 
18.5661 1.55437 18.8274 
17.1581 2.84478 17.2447 
20.0765 2.89533 17.3109 
17.169 2.96035 20.1401 
20.1581 3.07977 19.9927 
17.1537 0.0538114 19.8877 
21.4353 1.53618 18.8272 
22.8937 2.81984 17.314 
24.2454 1.34164 18.6046 
22.8297 0.056528 17.3036 
23.0942 2.93646 20.0599 
28.6684 2.94342 17.1078 
27.2279 1.49707 18.6933 
25.7973 2.80455 17.1589 
25.8989 0.0632551 17.3071 
25.8254 2.76657 19.9419 
25.8392 0.0278365 20.0858 
1.461 4.28102 18.724 
1.45501 7.05434 18.5983 
2.95682 5.70395 17.3671 
2.74458 5.74115 20.4881 
4.28205 4.40106 18.7503 
7.06759 4.32637 18.6275 
4.33627 7.22299 18.5419 
5.86823 5.86056 17.2096 
7.36058 7.14446 18.8438 