ITEM: TIMESTEP
28042
ITEM: NUMBER OF ATOMS
2001
ITEM: BOX BOUNDS pp pp pp
0.0000000000000000e+00 2.8712000000000000e+01
0.0000000000000000e+00 2.8712000000000000e+01
0.0000000000000000e+00 2.8712000000000000e+01
ITEM: ATOMS x y z c_cna 
1.43256 1.43725 1.42816 3 
2.86801 2.87284 2.86348 3 
2.86843 0.00173458 2.86346 3 
4.30371 1.43711 1.42819 3 
7.17455 1.43641 1.42818 3 
5.73911 2.87236 2.86351 3 
5.73948 0.00129524 2.86348 3 
10.045 1.43536 1.42812 3 
8.60954 2.87146 2.86359 3 
11.4796 2.87004 2.86371 3 
8.61017 0.000437492 2.8635 3 
12.916 1.43481 1.4281 3 
15.7878 1.43547 1.42807 3 
14.3507 2.86966 2.86382 3 
18.6593 1.43672 1.42805 3 
17.2228 2.87111 2.86411 3 
20.0938 2.87278 2.86471 3 
17.2241 0.000611952 2.86372 3 
20.0951 0.00131741 2.86384 3 
21.5299 1.43766 1.42807 3 
24.4013 1.43753 1.42808 3 
22.9652 2.87329 2.86375 3 
22.966 0.00169016 2.86366 3 
28.7089 2.87269 2.86351 3 
27.2731 1.43722 1.42812 3 
25.8374 2.87268 2.86355 3 
28.709 0.00171201 2.86347 3 
25.8374 0.00171054 2.86353 3 
1.43213 4.3087 1.42822 3 
1.43248 7.17953 1.42828 3 
2.8681 5.74388 2.86362 3 
4.30361 4.30828 1.42823 3 
7.17435 4.30779 1.42823 3 
4.3036 7.1797 1.42831 3 
7.17454 7.17948 1.42829 3 
5.73911 5.74378 2.86364 3 
10.0444 4.30658 1.42821 3 
10.045 7.17858 1.42827 3 
8.60957 5.74312 2.86375 3 
11.4791 5.74141 2.86392 3 
12.9139 4.30455 1.42814 3 
15.7857 4.30481 1.42811 3 
12.9141 7.17653 1.42821 3 
15.7811 7.1718 1.42818 3 
14.3476 5.73829 2.86409 3 
18.6582 4.30774 1.42809 3 
18.6592 7.18111 1.42816 3 
17.2207 5.74038 2.86382 3 
20.0901 5.74299 2.86852 3 
24.4011 4.30853 1.42812 3 
21.5277 4.30969 1.42812 3 
21.5216 7.1777 1.42816 3 
22.9648 5.74343 2.86456 3 
24.4029 7.17783 1.4282 3 
28.7081 5.74459 2.86362 3 
27.2733 4.30828 1.42818 3 
27.2712 7.18154 1.42823 3 
25.8381 5.74326 2.86385 3 
1.43218 10.0516 1.42831 3 
2.86805 8.61537 2.86373 3 
2.8674 11.4875 2.864 3 
4.30324 10.0515 1.42835 3 
7.17478 10.0509 1.42835 3 
5.73909 8.61536 2.86379 3 
5.73907 11.4867 2.86396 3 
10.0462 10.0501 1.42831 3 
8.61013 8.61481 2.86399 3 
11.4805 8.61363 2.86431 3 
8.61077 11.4859 2.86415 3 
11.4822 11.4846 2.86496 3 
12.9171 10.049 1.42826 3 
15.7905 10.0499 1.42822 3 
14.3497 8.61149 2.86392 3 
14.3524 11.4809 2.86865 3 
18.7108 10.1014 1.42819 5 
17.2184 8.60905 2.8536 3 
20.0727 8.6042 2.89486 3 
17.2137 11.4633 2.89492 3 
19.945 11.3356 3.26581 5 
17.2184 8.60909 0.00278691 3 
21.5265 9.94721 1.42818 5 
24.3852 10.0675 1.42823 3 
22.9763 8.60307 2.87341 3 
22.9298 11.5228 2.85062 5 
20.7821 12.1724 1.42819 5 
22.9299 11.5228 0.0057742 5 
28.7092 11.4878 2.86472 3 
28.7094 8.61457 2.86395 3 
27.2748 10.0498 1.42828 3 
25.833 8.61961 2.86352 3 
25.8495 11.4763 2.87343 3 
1.43101 12.925 1.42831 3 
1.433 15.7945 1.42829 3 
2.86793 14.3589 2.86494 3 
4.30401 15.7934 1.4283 3 
4.30308 12.9228 1.42833 3 
7.1751 12.9218 1.42835 3 
7.17545 15.7926 1.42833 3 
5.7394 14.3576 2.86414 3 
10.0471 12.9207 1.42833 3 
10.047 15.7919 1.42828 3 
8.61116 14.3568 2.86396 3 
11.4828 14.3559 2.864 3 
12.9192 12.9184 1.42827 3 
15.7872 12.9123 1.42821 3 
12.9181 15.7917 1.42823 3 
15.7874 15.7935 1.42818 3 
14.353 14.3555 2.86469 3 
18.5568 12.917 1.42823 5 
18.6771 15.7757 1.42818 3 
17.2126 14.3669 2.87344 3 
20.1323 14.3204 2.85062 5 
20.1324 14.3204 0.00575469 5 
22.28 13.6707 1.42826 5 
24.5054 12.9262 1.42821 5 
21.5357 15.896 1.42819 5 
23.1172 14.5077 3.2659 5 
24.3514 15.7419 1.42819 5 
28.7097 14.3625 2.86865 3 
27.2749 12.931 1.42826 3 
27.2716 15.7934 1.42824 3 
25.8484 14.38 2.89491 3 
1.43594 18.6669 1.42823 3 
2.86962 17.2298 2.86432 3 
2.87104 20.1019 2.86396 3 
0.000322765 17.2319 2.86392 3 
0.00244757 20.1051 2.86414 3 
4.30524 18.6648 1.42828 3 
7.1758 18.6639 1.42829 3 
5.7401 17.2286 2.86398 3 
5.74076 20.1002 2.86378 3 
10.0468 18.6636 1.42823 3 
8.61123 17.228 2.86378 3 
11.4823 17.228 2.86373 3 
8.61132 20.0994 2.86366 3 
11.4824 20.0993 2.86361 3 
12.9179 18.6637 1.4282 3 
15.7911 18.6617 1.42815 3 
14.3529 17.2287 2.86393 3 
14.3543 20.0986 2.86364 3 
18.6593 18.6654 1.42816 3 
17.2292 17.2236 2.86349 3 
20.0858 17.2401 2.87343 3 
17.2241 20.0999 2.86387 3 
20.0973 20.0998 2.8646 3 
21.5405 18.6655 1.42816 3 
24.4029 18.6622 1.42818 3 
22.9894 17.2391 2.89489 3 
22.9719 20.1003 2.86855 3 
27.281 18.6716 1.42821 3 
25.8437 17.2343 2.85361 3 
25.8413 20.103 2.86389 3 
25.8437 17.2342 0.00280097 3 
1.4362 21.5387 1.42818 3 
1.4342 24.4083 1.42814 3 
2.87064 22.9731 2.86376 3 
4.30533 24.4077 1.42818 3 
4.30588 21.5366 1.42822 3 
7.17606 21.5354 1.42823 3 
5.74086 22.9716 2.86362 3 
7.1759 24.4066 1.42817 3 
10.0469 21.5348 1.4282 3 
8.61139 22.9707 2.86354 3 
11.4825 22.9703 2.8635 3 
10.0468 24.4059 1.42815 3 
12.9183 21.5344 1.42815 3 
15.7891 21.5349 1.42811 3 
14.3535 22.9704 2.86353 3 
12.9179 24.4058 1.42811 3 
15.7892 24.4059 1.42806 3 
18.6612 21.5347 1.4281 3 
18.6609 24.4057 1.42804 3 
17.2249 22.9705 2.86355 3 
20.097 22.97 2.86379 3 
21.5344 21.5336 1.42811 3 
24.4038 21.5356 1.42813 3 
21.5322 24.4056 1.42805 3 
22.9682 22.9705 2.86475 3 
24.4028 24.4066 1.42807 3 
28.7114 22.9736 2.86387 3 
27.2763 21.5385 1.42814 3 
25.8392 22.9722 2.86416 3 
27.2743 24.4078 1.42809 3 
1.43302 27.2785 1.42814 3 
2.86928 25.8432 2.86355 3 
4.30436 27.2782 1.42818 3 
7.17523 27.2775 1.42817 3 
5.74026 25.8425 2.86352 3 
11.481 28.7118 2.86353 3 
10.0461 27.2767 1.42813 3 
8.61101 25.8416 2.86348 3 
11.482 25.8413 2.86348 3 
14.3525 28.7119 2.8636 3 
12.9173 27.2766 1.42809 3 
15.7888 27.2769 1.42805 3 
14.3533 25.8414 2.86349 3 
18.6602 27.2773 1.42802 3 
17.2248 25.8415 2.86352 3 
20.096 25.8416 2.86365 3 
21.531 27.2777 1.42803 3 
22.9669 25.842 2.86386 3 
24.4019 27.278 1.42807 3 
28.7097 25.8432 2.86361 3 
27.2733 27.2783 1.42809 3 
25.838 25.8426 2.86374 3 
1.43273 1.43711 4.29883 3 
1.43329 1.43678 7.17 3 
2.86831 2.87245 5.73429 3 
2.86868 0.00165855 5.73427 3 
4.30379 1.43701 4.29879 3 
7.17455 1.4363 4.29888 3 
4.30402 1.43674 7.16976 3 
7.1745 1.43605 7.16992 3 
5.73917 2.87205 5.73433 3 
5.73953 0.00121495 5.73423 3 
10.0449 1.43525 4.29907 3 
10.0446 1.43496 7.17038 3 
8.60939 2.87114 5.73463 3 
11.4792 2.86967 5.73522 3 
8.61008 0.000360972 5.73436 3 
12.9158 1.43465 4.29929 3 
15.7873 1.43516 4.29963 3 
12.9151 1.43415 7.1711 3 
15.7863 1.43412 7.17211 3 
14.3498 2.86894 5.73597 3 
18.6588 1.43618 4.30016 3 
18.6586 1.43494 7.17219 3 
17.2212 2.86934 5.73751 3 
20.0942 2.8707 5.73718 3 
17.2234 0.000221736 5.73539 3 
20.095 0.000853959 5.7354 3 
24.4018 1.43708 4.2992 3 
21.5303 1.43695 4.29979 3 
21.531 1.43561 7.17174 3 
24.4029 1.43601 7.17113 3 
22.9667 2.87134 5.73613 3 
22.9666 0.00123844 5.73511 3 
27.2734 1.43698 4.29897 3 
28.7095 2.87215 5.73463 3 
27.2743 1.43639 7.17051 3 
25.8384 2.87165 5.73519 3 
28.7095 0.00160614 5.73447 3 
25.838 0.00144499 5.73476 3 
1.4324 4.30835 4.29896 3 
1.43297 7.17892 4.29938 3 
1.43323 4.30746 7.17046 3 
1.43443 7.17741 7.17181 3 
2.86857 5.74318 5.7347 3 
4.30379 7.17931 4.29916 3 
7.17435 4.30755 4.29905 3 
4.30372 4.30802 4.29893 3 
7.17451 7.17911 4.29932 3 
4.30434 7.17838 7.17064 3 
4.304 4.30742 7.17006 3 
7.17425 4.30699 7.17028 3 
5.7392 5.74323 5.73461 3 
7.17436 7.17833 7.17074 3 
10.0443 4.30631 4.29937 3 
10.0447 7.17805 4.2998 3 
10.0437 4.30559 7.17115 3 
8.60933 5.74251 5.73506 3 
10.0436 7.17692 7.17224 3 
11.4784 5.7405 5.73606 3 
15.7848 4.30403 4.30031 3 
12.9136 4.30416 4.29987 3 
12.9134 7.17553 4.30041 3 
15.7798 7.1705 4.29999 3 
12.9125 4.30301 7.17294 3 
15.7818 4.3006 7.17668 3 
12.91 7.17245 7.17677 3 
14.346 5.73664 5.73784 3 
15.7693 7.1599 7.19069 3 
18.6559 4.30533 4.30305 3 
18.6439 7.16541 4.31605 3 
18.6567 4.30206 7.17655 3 
17.2137 5.73293 5.745 3 
18.6529 7.16263 7.18881 3 
20.0928 5.73644 5.7434 3 
24.4023 4.30724 4.2999 3 
21.5315 4.30355 7.17515 3 
21.5297 4.30703 4.30164 3 
21.5306 7.17076 4.30909 3 
24.4068 7.17406 4.30402 3 
21.5347 7.16667 7.18454 3 
22.969 5.73833 5.74032 3 
24.4093 7.17088 7.18036 3 
24.4044 4.30462 7.17359 3 
28.7093 5.74338 5.73523 3 
27.2738 4.30769 4.29928 3 
27.2724 7.18023 4.29977 3 
27.2752 4.3062 7.17176 3 
25.8405 5.74073 5.73742 3 
27.275 7.17754 7.17337 3 
1.4334 10.0503 4.30007 3 
1.43593 10.0481 7.17367 3 
2.86904 8.61422 5.73535 3 
2.86931 11.4859 5.73632 3 
0.00219371 11.4836 5.74042 3 
4.30365 10.0509 4.29943 3 
7.17477 10.0506 4.29961 3 
4.30469 10.0498 7.17131 3 
5.73931 8.61466 5.73498 3 
7.17471 10.05 7.17105 3 
5.7395 11.4861 5.73538 3 
10.0456 10.0496 4.30043 3 
8.60973 8.6141 5.73558 3 
10.0444 10.0493 7.17239 3 
11.4788 8.61192 5.73769 3 
8.61029 11.4858 5.73567 3 
11.4802 11.485 5.73744 3 
12.9148 10.0467 4.30325 3 
15.7748 10.0346 4.31613 3 
12.9116 10.0475 7.1767 3 
14.3424 8.60438 5.7451 3 
15.7722 10.0435 7.18888 3 
14.346 11.4835 5.74356 3 
18.5616 9.95217 4.40337 3 
17.1831 8.57373 5.77888 3 
18.6461 10.0366 7.18812 3 
20.0937 8.58764 5.76712 3 
17.1972 11.4843 5.7672 3 
20.0851 11.4756 5.77087 3 
21.5633 9.9998 4.34494 3 
24.3948 10.0578 4.3015 3 
21.5333 10.0414 7.18259 3 
22.9814 8.59682 5.75589 3 
22.9613 11.4912 5.74435 3 
24.4029 10.0496 7.17849 3 
27.2785 10.0458 4.30408 3 
28.7118 8.61213 5.73749 3 
25.8378 8.61475 5.73858 3 
27.2816 10.0432 7.1804 3 
25.8557 11.4711 5.75592 3 
1.4336 12.9229 4.30181 3 
1.43534 15.7967 4.30321 3 
1.43701 12.9211 7.17523 3 
1.43851 15.7958 7.1766 3 
2.86996 14.3584 5.73736 3 
0.00409225 14.3598 5.74348 3 
4.30377 12.9223 4.30007 3 
4.30454 15.7938 4.30041 3 
7.1751 12.9217 4.29973 3 
7.17547 15.7929 4.29961 3 
4.30507 12.9216 7.17192 3 
7.17507 12.9217 7.17116 3 
4.30574 15.794 7.17232 3 
5.73989 14.3576 5.73564 3 
7.1755 15.7933 7.17107 3 
10.0464 12.9211 4.30011 3 
10.0466 15.7925 4.29947 3 
10.0451 12.9217 7.172 3 
8.61071 14.3573 5.73541 3 
10.0456 15.7935 7.17142 3 
11.4809 14.3575 5.73641 3 
12.9165 12.9205 4.30187 3 
15.7803 12.9213 4.30919 3 
12.9168 15.793 4.30011 3 
15.7837 15.7974 4.3041 3 
12.9131 12.9222 7.17537 3 
15.7763 12.9253 7.18467 3 
12.9143 15.7951 7.17382 3 
14.348 14.3597 5.74049 3 
15.7806 15.7999 7.18052 3 
18.6094 12.9538 4.34499 3 
18.6673 15.7854 4.30154 3 
18.651 12.9239 7.18264 3 
17.2064 14.372 5.75596 3 
18.6593 15.7934 7.17858 3 
20.1008 14.3519 5.74439 3 
21.5311 12.9216 4.2624 5 
21.4989 15.8433 4.34495 3 
24.4527 12.8894 4.34496 3 
21.531 12.9215 7.17593 3 
21.5287 15.8017 7.18264 3 
22.977 14.3675 5.77086 3 
24.4159 15.8065 7.18811 3 
24.4111 12.9192 7.18261 3 
24.5004 15.891 4.40332 3 
27.2818 12.922 4.30917 3 
27.2872 15.8087 4.3161 3 
27.2858 12.9178 7.18457 3 
25.8649 14.3589 5.76717 3 
27.2899 15.7997 7.18883 3 
1.43664 18.6678 4.30042 3 
1.44002 18.6708 7.17671 3 
2.87134 17.2314 5.73765 3 
2.87172 20.1028 5.73605 3 
0.00403539 20.1067 5.73786 3 
0.00767237 17.2389 5.74505 3 
4.30555 18.6653 4.29982 3 
7.17584 18.6642 4.29936 3 
4.30654 18.6664 7.17223 3 
5.74051 17.2293 5.73559 3 
7.17593 18.6649 7.17083 3 
5.74097 20.1007 5.73511 3 
10.0466 18.664 4.29921 3 
8.61098 17.2287 5.73505 3 
10.046 18.6648 7.17081 3 
11.4813 17.229 5.73546 3 
8.61122 20.1 5.73474 3 
11.4818 20.1 5.73485 3 
12.9174 18.6643 4.29945 3 
15.7899 18.6629 4.29983 3 
12.9159 18.6658 7.17202 3 
14.3504 17.2311 5.73761 3 
15.7873 18.6656 7.17355 3 
14.3531 20.0998 5.73538 3 
18.6554 18.6691 4.30408 3 
17.2244 17.2284 5.73868 3 
18.6529 18.6722 7.18048 3 
20.0807 17.2463 5.75595 3 
17.2218 20.1024 5.73757 3 
20.0931 20.1048 5.74042 3 
21.5315 18.6724 4.30915 3 
21.5274 18.6764 7.18464 3 
22.9683 17.2555 5.76718 3 
22.9692 20.1068 5.74349 3 
24.4092 18.6806 7.18884 3 
24.4181 18.6779 4.3161 3 
27.2822 18.6728 4.30003 3 
25.8789 17.2695 5.7789 3 
27.2927 18.6834 7.19067 3 
25.8483 20.1104 5.74504 3 
1.43653 21.5391 4.29993 3 
1.43442 24.4085 4.29931 3 
1.43764 21.5402 7.17296 3 
2.87101 22.9735 5.73525 3 
1.43508 24.409 7.17107 3 
0.000204639 22.9743 5.73598 3 
4.30603 21.5369 4.29942 3 
7.17608 21.5356 4.29913 3 
7.17591 24.4067 4.29894 3 
4.30649 21.5376 7.17117 3 
7.17613 21.5362 7.17038 3 
4.3057 24.4082 7.17038 3 
5.74098 22.972 5.73469 3 
7.17593 24.407 7.16998 3 
4.30541 24.4078 4.29909 3 
10.0468 21.5351 4.299 3 
10.0467 24.406 4.29888 3 
10.0464 21.5357 7.17026 3 
8.61132 22.971 5.73446 3 
10.0464 24.4063 7.16993 3 
11.4822 22.9706 5.73446 3 
12.918 21.5348 4.29905 3 
15.7885 21.5355 4.29938 3 
12.9177 24.406 4.29891 3 
12.9172 21.5357 7.17068 3 
15.7871 21.5369 7.17195 3 
14.3529 22.971 5.73478 3 
15.788 24.4068 7.17066 3 
12.9171 24.4063 7.17019 3 
15.7889 24.4062 4.29904 3 
18.6599 21.536 4.29996 3 
18.6603 24.4062 4.29925 3 
18.6578 21.5385 7.17372 3 
17.2238 22.9716 5.73533 3 
20.0953 22.9719 5.73623 3 
18.6593 24.4073 7.17127 3 
24.4032 24.4071 4.30019 3 
21.5324 21.5362 4.30172 3 
24.406 21.538 4.30314 3 
21.5306 21.5397 7.17523 3 
21.5311 24.4078 7.17179 3 
22.9678 22.9726 5.73724 3 
24.4034 24.4084 7.1722 3 
24.4052 21.5412 7.17658 3 
21.5317 24.4064 4.29984 3 
27.2772 21.5393 4.30037 3 
27.2747 24.4081 4.29964 3 
27.2802 21.5427 7.17669 3 
25.8408 22.974 5.73754 3 
27.2758 24.4092 7.1721 3 
1.43318 27.2785 4.29893 3 
1.4337 27.2786 7.17015 3 
2.86955 25.8434 5.73457 3 
4.30443 27.2782 4.29885 3 
7.17525 27.2775 4.29883 3 
4.30465 27.2783 7.16986 3 
5.74034 25.8427 5.73436 3 
7.17522 27.2775 7.16979 3 
10.046 27.2768 4.29888 3 
11.4807 28.7117 5.73461 3 
8.61092 25.8418 5.7343 3 
10.0457 27.2768 7.16996 3 
11.4817 25.8414 5.73439 3 
14.352 28.7117 5.73495 3 
12.9171 27.2766 4.29899 3 
15.7885 27.2769 4.29913 3 
12.9166 27.2766 7.17029 3 
14.3528 25.8415 5.73458 3 
15.7878 27.2768 7.17066 3 
18.6599 27.2773 4.29933 3 
17.2241 25.8418 5.73484 3 
18.6594 27.2773 7.17089 3 
20.0955 25.8421 5.73517 3 
21.531 27.2777 4.29942 3 
24.4022 27.278 4.29932 3 
21.531 27.2777 7.17095 3 
22.967 25.8425 5.7354 3 
24.4027 27.2781 7.17086 3 
27.2736 27.2783 4.2991 3 
28.7102 25.8435 5.7349 3 
25.8386 25.8431 5.73537 3 
27.2744 27.2784 7.17057 3 
2.86884 2.87188 8.60572 3 
2.8691 0.00153084 8.60557 3 
1.43391 1.43638 10.0417 3 
2.86927 2.87146 11.4774 3 
2.86953 0.00143931 11.4772 3 
5.73924 2.87157 8.60562 3 
5.73964 0.00109245 8.60539 3 
4.30432 1.4364 10.0412 3 
7.17442 1.43573 10.0414 3 
5.73934 2.87118 11.4772 3 
5.73977 0.000970357 11.4769 3 
8.60912 2.87064 8.60618 3 
11.4785 2.86898 8.6075 3 
8.6099 0.000214238 8.60563 3 
10.0442 1.43459 10.0422 3 
8.60887 2.87025 11.4779 3 
11.4783 2.86874 11.4796 3 
8.60971 6.03863e-05 11.4772 3 
14.3485 2.86742 8.60964 3 
12.9144 1.43354 10.0435 3 
15.7863 1.43356 10.044 3 
14.3496 2.86803 11.4806 3 
17.2214 2.86785 8.61006 3 
20.0949 2.86882 8.60949 3 
18.6588 1.43413 10.044 3 
17.2223 2.86833 11.4807 3 
20.0952 2.86895 11.4803 3 
20.0951 0.000236125 8.60711 3 
22.9677 2.86958 8.60867 3 
21.5313 1.43474 10.0436 3 
24.4034 1.4353 10.0431 3 
22.9677 2.8696 11.4798 3 
22.967 0.000687052 8.60686 3 
22.9673 0.000470563 11.4784 3 
28.7107 0.00133525 11.4777 3 
28.7104 2.87134 8.60653 3 
25.8396 2.87036 8.60771 3 
28.7109 2.87101 11.4782 3 
27.275 1.43586 10.0424 3 
25.8397 2.87028 11.4791 3 
28.7102 0.00143993 8.60601 3 
25.8388 0.00107876 8.60648 3 
25.8392 0.00094524 11.4781 3 
2.86936 5.74221 8.60658 3 
1.434 4.30666 10.0424 3 
1.43517 7.17673 10.044 3 
2.8697 5.74181 11.4782 3 
5.73934 5.74246 8.60614 3 
4.30436 4.30676 10.0417 3 
4.30485 7.17764 10.0425 3 
7.1741 4.30638 10.0419 3 
7.17424 7.17778 10.0424 3 
5.73943 5.74199 11.4777 3 
8.60881 5.74171 8.60696 3 
11.4769 5.7391 8.60971 3 
10.0431 4.3049 10.0435 3 
10.0431 7.17684 10.0441 3 
8.60866 5.74149 11.4785 3 
11.4775 5.74011 11.4806 3 
14.3429 5.73344 8.61607 3 
15.7839 4.3014 10.0479 3 
12.9116 4.30211 10.0467 3 
12.9109 7.17457 10.0479 3 
15.7815 7.17202 10.0504 3 
14.348 5.73854 11.4825 3 
17.2181 5.73332 8.6168 3 
20.0949 5.73522 8.61512 3 
18.6581 4.30219 10.0474 3 
18.6569 7.17278 10.0491 3 
17.2213 5.73861 11.4823 3 
20.0949 5.73936 11.4816 3 
22.9697 5.73698 8.61335 3 
21.5318 4.30318 10.0465 3 
21.5317 7.17416 10.0478 3 
22.9679 5.74016 11.481 3 
24.4048 7.17537 10.0469 3 
24.4045 4.30419 10.0455 3 
28.7107 5.74193 8.60775 3 
25.8417 5.73915 8.61096 3 
28.7109 5.74176 11.479 3 
27.2759 4.30546 10.044 3 
27.2756 7.17696 10.045 3 
25.84 5.74094 11.4802 3 
2.87028 8.613 8.60778 3 
2.87101 11.4849 8.60876 3 
1.43634 10.048 10.0455 3 
2.87035 8.61295 11.4791 3 
2.87099 11.4849 11.4798 3 
0.000327648 11.4847 11.4809 3 
0.00351667 11.4828 8.61333 3 
0.00137037 8.61085 8.61099 3 
5.73967 8.61384 8.60663 3 
5.74004 11.4856 8.60701 3 
4.30538 10.0492 10.0431 3 
7.17461 10.0496 10.0426 3 
5.73979 8.61349 11.4782 3 
5.74021 11.4854 11.4784 3 
8.60915 8.61361 8.60729 3 
11.4773 8.61211 8.61018 3 
8.60964 11.4857 8.60727 3 
11.4783 11.4856 8.60967 3 
10.0436 10.0495 10.044 3 
8.60891 8.61348 11.4787 3 
11.4778 8.61287 11.4807 3 
8.60936 11.4857 11.4786 3 
11.4785 11.4857 11.4804 3 
14.3428 8.6087 8.61688 3 
14.3448 11.4855 8.61524 3 
12.9117 10.0487 10.0475 3 
15.7824 10.0475 10.0492 3 
14.3481 8.61183 11.4824 3 
14.349 11.4854 11.4817 3 
17.2142 8.6047 8.61954 3 
20.0934 8.60716 8.61611 3 
17.2168 11.484 8.61617 3 
20.0922 11.4827 8.61287 3 
18.6561 10.0465 10.0474 3 
17.2207 8.61115 11.482 3 
20.0944 8.61178 11.481 3 
17.2215 11.4848 11.481 3 
20.0944 11.4847 11.4797 3 
22.9697 8.60931 8.61458 3 
22.967 11.4855 8.61212 3 
21.5308 10.0476 10.0462 3 
22.9674 8.61247 11.4807 3 
22.9671 11.4854 11.4799 3 
24.4035 10.0489 10.0465 3 
28.7116 8.61261 11.4802 3 
25.8399 8.61255 8.61163 3 
25.8431 11.4828 8.61459 3 
27.2771 10.0477 10.0469 3 
25.8394 8.61305 11.4805 3 
25.84 11.4851 11.4807 3 
2.87179 14.3577 8.60953 3 
1.43734 12.9207 10.0465 3 
1.43835 15.7944 10.0473 3 
2.87162 14.3574 11.4803 3 
0.00526503 14.3576 8.61512 3 
0.00112711 14.3576 11.4815 3 
5.74049 14.3576 8.60723 3 
4.30591 12.9213 10.0436 3 
7.17504 12.9216 10.0427 3 
4.30651 15.7938 10.044 3 
7.17552 15.7936 10.0427 3 
5.74072 14.3575 11.4786 3 
8.61012 14.3577 8.60707 3 
11.4792 14.3584 8.60893 3 
10.0442 12.9219 10.0437 3 
10.0448 15.794 10.0433 3 
8.60987 14.3578 11.4785 3 
11.4792 14.3582 11.4799 3 
14.3467 14.3603 8.61352 3 
12.9128 12.9224 10.0466 3 
15.7839 12.9222 10.048 3 
12.9139 15.7951 10.0457 3 
15.7852 15.7954 10.0471 3 
14.3499 14.3584 11.4811 3 
17.219 14.3602 8.6147 3 
20.0952 14.3575 8.61217 3 
18.6574 12.9212 10.0463 3 
18.6587 15.794 10.0466 3 
17.2223 14.3578 11.4808 3 
20.0952 14.3574 11.48 3 
22.9699 14.3603 8.61286 3 
21.5311 12.9214 10.045 3 
21.5314 15.7953 10.0463 3 
22.9679 14.3582 11.4797 3 
24.4061 15.7965 10.0474 3 
24.4048 12.9217 10.0462 3 
25.8453 14.3591 8.61609 3 
27.2783 12.9208 10.0478 3 
27.2797 15.7957 10.0491 3 
25.8407 14.3582 11.4809 3 
2.87275 17.2312 8.61008 3 
2.87321 20.1041 8.60965 3 
1.43921 18.6687 10.0478 3 
2.87226 17.2303 11.4806 3 
2.87257 20.1031 11.4805 3 
0.00717907 20.1098 8.61603 3 
0.00724587 17.2345 8.61678 3 
0.00209656 20.1047 11.4823 3 
0.00196935 17.2313 11.4822 3 
4.30707 18.6664 10.044 3 
5.74103 17.2297 8.60729 3 
5.74144 20.1015 8.60698 3 
7.17598 18.6654 10.0425 3 
5.74121 17.2297 11.4787 3 
5.74156 20.1017 11.4785 3 
8.61059 17.2294 8.60673 3 
11.48 17.2302 8.60797 3 
8.61101 20.1007 8.60627 3 
11.481 20.1009 8.60682 3 
10.0454 18.6655 10.0427 3 
8.6104 17.2297 11.4783 3 
11.4799 17.2301 11.4793 3 
8.61085 20.1011 11.4778 3 
11.4807 20.1013 11.4785 3 
14.3489 17.2323 8.6112 3 
14.3517 20.1012 8.608 3 
12.9152 18.6664 10.0443 3 
15.7868 18.6661 10.0453 3 
14.3507 17.2304 11.4804 3 
14.3515 20.1013 11.4793 3 
17.2223 17.2305 8.61179 3 
20.0925 17.2337 8.61467 3 
17.2206 20.1039 8.61114 3 
20.0925 20.1061 8.61344 3 
18.6574 18.6676 10.047 3 
17.2229 17.2299 11.4807 3 
20.0949 17.2304 11.4808 3 
17.2225 20.1021 11.4804 3 
20.0944 20.1029 11.481 3 
22.9687 17.2359 8.61612 3 
22.9672 20.108 8.61516 3 
21.5305 18.6689 10.0479 3 
22.9678 17.2312 11.4809 3 
22.9673 20.1038 11.4816 3 
24.4052 18.6703 10.0491 3 
25.8479 17.2384 8.61949 3 
25.844 20.1099 8.61679 3 
27.2806 18.6712 10.0503 3 
25.8414 17.2319 11.4819 3 
25.8408 20.1046 11.4822 3 
2.87167 22.9742 8.60746 3 
1.43575 24.4097 10.0434 3 
1.43852 21.5411 10.0466 3 
2.87191 22.9745 11.4795 3 
0.00155482 22.9759 8.6096 3 
0.000555603 22.9752 11.4805 3 
5.74122 22.9725 8.6062 3 
4.30606 24.4085 10.0421 3 
7.17594 24.4074 10.0414 3 
4.3071 21.5383 10.0434 3 
7.17621 21.5367 10.042 3 
5.74141 22.9729 11.4779 3 
8.61116 22.9715 8.60576 3 
11.4816 22.9712 8.60597 3 
10.0461 24.4067 10.0414 3 
10.046 21.5363 10.0419 3 
8.61101 22.9719 11.4773 3 
11.4812 22.9717 11.4776 3 
14.3519 22.9718 8.60675 3 
12.9164 21.5364 10.0426 3 
15.7865 21.5377 10.0442 3 
12.9165 24.4067 10.0419 3 
15.7873 24.4073 10.0426 3 
14.3516 22.9721 11.4785 3 
17.2227 22.9728 8.60788 3 
20.0945 22.9737 8.6088 3 
18.6578 21.539 10.0456 3 
18.6588 24.408 10.0432 3 
17.2227 22.9729 11.4793 3 
20.0946 22.9737 11.4799 3 
22.9672 22.9745 8.60952 3 
21.5304 21.54 10.0466 3 
24.4033 24.4092 10.0439 3 
21.5308 24.4086 10.0436 3 
24.4039 21.5411 10.0474 3 
22.967 22.9744 11.4803 3 
25.8406 22.9755 8.61004 3 
27.2758 24.4098 10.044 3 
25.8398 22.975 11.4806 3 
27.2781 21.5419 10.0478 3 
2.87002 25.8437 8.60609 3 
2.87041 25.8439 11.4778 3 
1.43428 27.2787 10.0418 3 
5.74049 25.8429 8.60561 3 
4.30495 27.2784 10.0413 3 
7.1752 27.2776 10.0412 3 
5.74062 25.8431 11.4772 3 
11.4803 28.7115 8.60618 3 
8.61078 25.842 8.60548 3 
11.4813 25.8416 8.60572 3 
11.4799 28.7112 11.478 3 
10.0454 27.2768 10.0414 3 
8.61059 25.8421 11.477 3 
11.4808 25.8417 11.4774 3 
14.3512 28.7112 8.60691 3 
14.3521 25.8417 8.60619 3 
14.3511 28.7111 11.4785 3 
12.916 27.2765 10.042 3 
15.7873 27.2767 10.0424 3 
14.3517 25.8419 11.4779 3 
17.223 28.7117 8.60719 3 
17.2234 25.8422 8.60664 3 
20.0951 25.8427 8.60693 3 
20.095 25.8429 11.4785 3 
18.6591 27.2772 10.0426 3 
17.2231 25.8424 11.4782 3 
20.0951 28.712 11.4786 3 
17.223 28.7115 11.4787 3 
22.967 25.8432 8.60711 3 
22.9671 25.8434 11.4786 3 
24.4031 27.2782 10.0425 3 
21.5311 27.2777 10.0426 3 
28.711 25.844 8.60682 3 
28.7112 25.8442 11.4784 3 
25.8391 25.8437 8.60714 3 
25.8392 25.8439 11.4786 3 
27.2749 27.2786 10.0423 3 
1.43421 1.43627 12.9132 3 
1.43423 1.43634 15.7842 3 
2.86938 2.8714 14.3487 3 
2.86969 0.00139797 14.3486 3 
4.30456 1.43621 12.9128 3 
7.17438 1.43552 12.913 3 
4.30461 1.43618 15.7842 3 
7.17442 1.43551 15.7842 3 
5.7394 2.87106 14.3486 3 
5.73984 0.000916685 14.3485 3 
10.0441 1.43451 12.9137 3 
11.4791 2.86957 14.3495 3 
10.0443 1.4347 15.7843 3 
8.60898 2.87035 14.3489 3 
8.60964 1.37856e-05 14.3487 3 
12.9149 1.4339 12.9144 3 
15.7867 1.43398 12.9146 3 
14.3505 2.86933 14.3498 3 
12.9151 1.43431 15.7843 3 
15.7869 1.43443 15.7843 3 
18.659 1.43441 12.9146 3 
20.0952 0.000119819 14.3492 3 
18.6591 1.43482 15.7843 3 
17.2227 2.86958 14.3498 3 
20.0952 2.87003 14.3496 3 
21.5313 1.43493 12.9144 3 
24.4034 1.43544 12.9141 3 
21.5313 1.43529 15.7842 3 
24.4034 1.43575 15.7842 3 
22.9674 2.8705 14.3495 3 
22.9673 0.000622135 14.3491 3 
28.7107 2.87129 14.349 3 
27.2752 1.43593 12.9137 3 
25.8393 2.87093 14.3493 3 
25.8393 0.00107572 14.349 3 
27.2751 1.43614 15.7842 3 
28.7108 0.00137813 14.3488 3 
1.43413 4.30659 12.9136 3 
1.43446 7.1774 12.9143 3 
2.86946 5.74202 14.349 3 
1.43406 4.30671 15.7842 3 
1.43414 7.17772 15.7842 3 
4.30449 4.30652 12.9132 3 
4.30481 7.17753 12.9137 3 
7.17408 4.30619 12.9133 3 
7.17421 7.17761 12.9136 3 
5.73942 5.74194 14.3488 3 
4.30461 7.17768 15.7842 3 
7.17413 4.30621 15.7842 3 
4.30446 4.30657 15.7842 3 
7.17423 7.17765 15.7842 3 
10.0435 4.30531 12.9144 3 
10.0434 7.17721 12.9146 3 
11.4788 5.74106 14.3498 3 
8.60883 5.74163 14.3492 3 
10.0438 4.30563 15.7843 3 
10.0439 7.17744 15.7842 3 
12.9138 4.30429 12.9155 3 
15.7859 4.30415 12.9158 3 
12.9136 7.17647 12.9159 3 
15.7854 7.17596 12.9161 3 
12.9146 4.30513 15.7843 3 
15.7865 4.30512 15.7843 3 
12.9146 7.1771 15.7843 3 
15.7864 7.17692 15.7843 3 
14.3501 5.74065 14.3501 3 
18.6587 4.30458 12.9156 3 
18.6583 7.17625 12.9156 3 
17.2224 5.74078 14.35 3 
20.095 5.74119 14.3498 3 
18.6589 4.30547 15.7842 3 
18.6587 7.17715 15.7842 3 
24.4036 4.30566 12.9148 3 
21.5314 4.30513 12.9152 3 
21.5311 7.17678 12.9152 3 
24.4033 7.17721 12.9151 3 
24.4033 4.30626 15.7842 3 
21.5312 4.30589 15.7842 3 
21.531 7.17747 15.7842 3 
24.4031 7.17772 15.7842 3 
22.9672 5.74158 14.3496 3 
28.7106 5.74208 14.3492 3 
27.2753 4.30617 12.9143 3 
27.2751 7.17751 12.9147 3 
25.8392 5.74189 14.3495 3 
27.275 4.30655 15.7842 3 
27.2748 7.17784 15.7842 3 
1.43488 10.049 12.9148 3 
2.86973 8.61336 14.3492 3 
1.43435 10.0494 15.7841 3 
2.8701 11.4852 14.3494 3 
4.30521 10.0492 12.9141 3 
7.17457 10.0495 12.9137 3 
5.73968 8.61348 14.349 3 
5.74008 11.4854 14.3491 3 
4.30493 10.0493 15.7842 3 
7.17456 10.0495 15.7842 3 
10.0438 10.0496 12.9146 3 
8.60948 11.4856 14.3492 3 
8.60906 8.61354 14.3492 3 
10.0442 10.0496 15.7842 3 
11.479 8.61333 14.3498 3 
11.4795 11.4857 14.3496 3 
12.9141 10.0493 12.9156 3 
15.7859 10.0488 12.9156 3 
12.915 10.0494 15.7843 3 
15.7867 10.0492 15.7842 3 
14.3503 8.61298 14.35 3 
14.3508 11.4854 14.3498 3 
18.6584 10.0487 12.9149 3 
17.2228 11.4852 14.3495 3 
18.6589 10.0492 15.7842 3 
20.0948 8.61312 14.3495 3 
17.2224 8.61285 14.3498 3 
20.095 11.4852 14.3492 3 
21.5308 10.0491 12.9146 3 
24.403 10.0494 12.9148 3 
21.531 10.0495 15.7842 3 
24.4029 10.0497 15.7841 3 
22.967 11.4855 14.3492 3 
22.967 8.61346 14.3495 3 
28.7107 8.61344 14.3494 3 
28.7109 11.4853 14.3496 3 
27.2753 10.0492 12.915 3 
25.839 11.4856 14.3494 3 
27.2748 10.0495 15.7841 3 
25.8389 8.6136 14.3495 3 
1.4354 12.9212 12.9151 3 
1.43599 15.7939 12.9155 3 
2.87056 14.3574 14.3495 3 
1.4347 12.9214 15.7841 3 
1.43517 15.7937 15.7841 3 
4.30571 12.9213 12.9143 3 
7.17503 12.9216 12.9138 3 
4.30623 15.7936 12.9145 3 
7.17552 15.7936 12.9137 3 
5.74057 14.3575 14.3491 3 
4.30585 15.7936 15.7841 3 
4.30536 12.9214 15.7841 3 
7.17501 12.9216 15.7841 3 
7.17551 15.7936 15.7841 3 
10.0444 12.9218 12.9144 3 
10.0449 15.7939 12.9142 3 
10.0447 12.9218 15.7842 3 
10.0452 15.7938 15.7842 3 
8.60997 14.3577 14.3491 3 
11.48 14.3578 14.3495 3 
12.9147 12.9219 12.9153 3 
15.7865 12.9215 12.9153 3 
12.9154 15.794 12.9149 3 
15.787 15.7938 12.9151 3 
12.9155 12.9217 15.7842 3 
15.7872 12.9214 15.7842 3 
12.9159 15.7937 15.7842 3 
15.7875 15.7934 15.7842 3 
14.3513 14.3576 14.3497 3 
18.6589 12.9211 12.9146 3 
18.6593 15.7934 12.9149 3 
20.0954 14.3573 14.3493 3 
18.6593 12.9212 15.7842 3 
18.6595 15.7932 15.7841 3 
17.2233 14.3573 14.3495 3 
21.5312 12.9214 12.9142 3 
21.5315 15.7938 12.9146 3 
24.4034 12.9217 12.9145 3 
24.4039 15.7943 12.9148 3 
21.5312 12.9214 15.7841 3 
24.4031 12.9217 15.7841 3 
21.5315 15.7934 15.7841 3 
24.4035 15.7938 15.7841 3 
22.9674 14.3576 14.3492 3 
28.7114 14.3576 14.3497 3 
25.8394 14.3578 14.3494 3 
27.2757 12.9215 12.9152 3 
27.2763 15.7942 12.9155 3 
27.2751 12.9216 15.7841 3 
27.2755 15.7939 15.7841 3 
2.87132 20.1021 14.3496 3 
1.43647 18.6667 12.9157 3 
2.87105 17.2299 14.3496 3 
1.43556 18.6661 15.7841 3 
4.83893e-05 20.1026 14.3499 3 
4.30666 18.666 12.9145 3 
5.74134 20.1015 14.3491 3 
7.17596 18.6655 12.9136 3 
5.74104 17.2296 14.3491 3 
4.30624 18.6658 15.7841 3 
7.17594 18.6655 15.7841 3 
10.0455 18.6655 12.9138 3 
11.4805 17.2297 14.3493 3 
11.4809 20.1011 14.3491 3 
8.61085 20.1012 14.3489 3 
10.0456 18.6654 15.7842 3 
8.61047 17.2296 14.349 3 
12.9159 18.6656 12.9144 3 
15.7874 18.6655 12.9148 3 
14.3519 20.101 14.3493 3 
14.3517 17.2295 14.3495 3 
12.9163 18.6653 15.7842 3 
15.7877 18.6651 15.7842 3 
17.2235 17.2293 14.3495 3 
18.659 18.6658 12.9151 3 
18.6594 18.6652 15.7841 3 
20.0952 20.1015 14.3496 3 
17.2233 20.1011 14.3495 3 
20.0954 17.2294 14.3495 3 
22.9673 20.1019 14.3497 3 
21.5312 18.6662 12.9152 3 
24.4038 18.6668 12.9155 3 
21.5314 18.6655 15.7841 3 
24.4036 18.6659 15.7841 3 
22.9675 17.2298 14.3494 3 
28.7118 17.2301 14.3498 3 
25.8397 20.1024 14.3499 3 
27.2767 18.6672 12.9159 3 
27.2758 18.6662 15.7841 3 
25.8398 17.2302 14.3496 3 
2.8711 22.9736 14.3494 3 
1.43635 21.5389 12.9154 3 
1.43537 24.4093 12.9143 3 
1.4356 21.5381 15.7841 3 
1.43511 24.4089 15.7842 3 
4.30673 21.5379 12.9143 3 
7.17619 21.537 12.9133 3 
4.30615 24.4087 12.9136 3 
7.17594 24.4076 12.913 3 
5.74125 22.9728 14.3489 3 
4.30597 24.4085 15.7842 3 
4.30634 21.5376 15.7841 3 
7.17612 21.5369 15.7842 3 
7.17587 24.4076 15.7842 3 
11.4811 22.9717 14.3488 3 
10.0458 24.4069 12.913 3 
10.0459 21.5366 12.9133 3 
8.61093 22.9721 14.3487 3 
10.0459 21.5365 15.7842 3 
10.0458 24.4069 15.7842 3 
15.7873 24.4073 12.9138 3 
12.9163 21.5365 12.9138 3 
15.7872 21.5369 12.9144 3 
12.9162 24.4069 12.9134 3 
14.3518 22.9719 14.3491 3 
12.9164 21.5364 15.7842 3 
15.7875 21.5365 15.7842 3 
12.9162 24.4068 15.7843 3 
15.7874 24.4071 15.7843 3 
18.6588 21.5375 12.9149 3 
18.6589 24.4079 12.9142 3 
18.6592 21.5369 15.7842 3 
18.659 24.4076 15.7842 3 
20.0949 22.9728 14.3495 3 
17.2231 22.9723 14.3493 3 
21.5309 21.5381 12.9152 3 
24.4032 24.409 12.9145 3 
21.5309 24.4084 12.9144 3 
24.4035 21.5387 12.9155 3 
22.9671 22.9733 14.3496 3 
21.5311 21.5373 15.7841 3 
24.4034 21.5377 15.7841 3 
21.5311 24.4081 15.7842 3 
24.4032 24.4085 15.7842 3 
28.7116 22.9739 14.3496 3 
25.8395 22.9737 14.3497 3 
27.2762 21.5391 12.9157 3 
27.2755 24.4093 12.9145 3 
27.2757 21.5381 15.7841 3 
27.2754 24.4089 15.7842 3 
1.43453 27.2787 12.9133 3 
2.87033 25.8438 14.3489 3 
1.43457 27.2787 15.7842 3 
4.30519 27.2784 12.9129 3 
5.74066 25.8431 14.3486 3 
7.17517 27.2775 12.9127 3 
4.30521 27.2783 15.7842 3 
7.17515 27.2775 15.7842 3 
10.0452 27.2767 12.913 3 
8.6105 25.8422 14.3486 3 
11.4807 25.8418 14.3487 3 
11.4799 28.7114 14.349 3 
10.0451 27.2768 15.7843 3 
12.9158 27.2765 12.9134 3 
15.7872 27.2767 12.9137 3 
14.3512 28.7113 14.3492 3 
14.3516 25.8419 14.3489 3 
12.9158 27.2765 15.7843 3 
15.7872 27.2768 15.7843 3 
17.223 28.7116 14.3492 3 
18.6591 27.2772 12.9138 3 
17.2231 25.8423 14.3491 3 
18.6591 27.2772 15.7842 3 
20.095 25.8428 14.3491 3 
21.5311 27.2777 12.9138 3 
24.4032 27.2782 12.9137 3 
22.9671 25.8433 14.3492 3 
21.5312 27.2777 15.7842 3 
24.4033 27.2782 15.7842 3 
27.2751 27.2786 12.9136 3 
25.8392 25.8437 14.3492 3 
28.7111 25.844 14.3491 3 
27.2752 27.2786 15.7842 3 
1.43428 1.43629 18.6552 3 