ITEM: TIMESTEP
28000
ITEM: NUMBER OF ATOMS
2001
ITEM: BOX BOUNDS pp pp pp
0.0000000000000000e+00 2.8712000000000000e+01
0.0000000000000000e+00 2.8712000000000000e+01
0.0000000000000000e+00 2.8712000000000000e+01
ITEM: ATOMS x y z 
1.40433 1.4694 1.36439 
2.99379 2.81048 2.98507 
2.94972 0.0540223 0.256231 
0.0532619 0.0232519 0.0772716 
2.91567 0.149344 2.99738 
4.28992 1.69918 1.41628 
7.13187 1.43559 1.43453 
5.90053 2.89452 2.91233 
5.53766 0.0644582 0.0566433 
5.72516 0.253323 2.81658 
5.67657 3.02731 0.0381235 
10.0659 1.35572 1.5036 
8.76291 2.91371 3.02708 
11.4701 3.02985 2.95825 
8.66616 2.85811 0.058868 
12.8092 1.40766 1.40471 
15.8643 1.55156 1.42945 
14.3118 2.81841 2.86647 
14.3086 0.109226 2.83576 
14.3959 0.0365969 0.00183691 
18.7681 1.32459 1.31423 
17.0711 2.8579 2.91777 
20.0235 2.78158 2.73172 
17.3862 2.91454 0.00799161 
21.4674 1.54529 1.40282 
24.4599 1.35173 1.28896 
22.7773 2.75697 2.88133 
24.5271 1.3011 4.07731 
24.5102 4.02247 4.02124 
22.9627 2.84062 0.00884844 
28.5837 2.76355 2.82157 
27.2815 1.31997 1.35788 
25.9291 2.79074 2.73993 
1.35782 4.1773 1.56504 
1.24773 7.10055 1.61515 
2.87316 5.68612 2.70926 
0.0243555 5.80484 2.9524 
2.74859 6.03491 0.0933414 
4.33067 4.30379 1.41125 
7.29296 4.24683 1.49754 
4.45233 7.15396 1.36521 
6.99583 7.37916 1.40629 
5.74573 5.49343 2.88877 
5.80893 5.90326 0.0435553 
10.1778 4.3161 1.44697 
9.94201 7.32085 1.45102 
8.64234 5.67666 2.86701 
11.4868 5.93242 2.79119 
11.4761 5.75234 0.0370498 
8.59032 5.86419 0.114339 
12.9424 4.24598 1.39279 
15.7687 4.24761 1.37473 
12.7413 7.24128 1.35098 
15.6613 7.18109 1.34901 
14.3817 5.83295 2.76222 
14.3593 5.76434 0.0113027 
18.5771 4.31205 1.4284 
18.6178 7.39291 1.47767 
17.0674 5.77509 2.74799 
19.95 5.629 2.64716 
17.2387 5.73825 0.0908018 
24.284 4.21772 1.53325 
21.5843 4.22355 1.34285 
21.398 7.21116 1.44502 
23.0454 5.65219 2.82638 
24.4864 7.15385 1.56543 
27.0724 4.38017 1.55534 
27.1056 7.05814 1.45999 
25.7218 5.81251 2.95651 
1.36215 9.90674 1.63141 
2.81997 8.57685 2.96393 
2.98838 11.3782 2.87386 
0.0209942 11.4719 2.90944 
0.0187365 8.48303 0.122941 
0.209617 11.4211 0.115174 
2.86411 8.57646 0.138814 
4.32995 10.0115 1.3525 
7.06026 10.1132 1.41101 
5.67257 8.66068 2.77231 
5.69447 11.4419 2.89523 
9.9468 10.3101 1.55269 
8.5305 8.78184 2.95241 
11.4503 8.76188 2.86455 
8.43472 11.6414 2.85655 
11.5438 11.687 2.84122 
8.52092 8.78125 0.0510727 
11.3447 8.71212 0.192295 
11.4101 11.6303 0.102184 
12.8494 10.0825 1.5353 
15.6183 10.0568 1.42996 
14.329 8.55372 2.98963 
14.197 11.5323 3.01169 
14.392 11.7558 0.0910453 
18.595 10.2715 1.54479 
17.1645 8.46571 2.92658 
20.0899 8.58949 3.01466 
17.1416 11.5279 3.00385 
19.8101 11.417 3.041 
17.1274 8.67497 0.137399 
17.2209 11.7259 0.0288942 
21.3753 10.1835 1.36471 
24.1405 9.96558 1.40291 
22.9708 8.35651 2.77858 
22.9067 11.5296 2.75849 
28.5805 8.35453 3.17765 
27.27 9.97944 1.53497 
25.6821 8.73483 2.80637 
25.7163 11.4506 3.05601 
25.9883 11.5286 0.0423184 
25.7074 8.45639 0.105175 
1.50783 12.8273 1.34764 
1.36325 15.86 1.46514 
2.93811 14.2958 3.01112 
0.0559128 14.3438 2.96457 
2.85716 14.4927 0.108865 
0.0568124 14.2177 0.143298 
4.32899 15.8095 1.62856 
4.24281 13.0103 1.44619 
7.09751 13.019 1.50245 
7.14347 15.7941 1.46896 
5.87669 14.2555 2.97053 
9.98732 13.177 1.32132 
10.0613 15.8703 1.43872 
8.62043 14.341 2.85829 
11.4374 14.4171 2.9176 
8.46574 14.4938 0.0331164 
12.8404 13.1658 1.39551 
15.6874 13.0071 1.79301 
13.0368 15.9384 1.38892 
15.7569 15.8728 1.34622 
14.0624 14.5154 2.93963 
18.4195 13.0395 1.31982 
18.6409 15.6372 1.44361 
17.0395 14.4153 3.03027 
20.1452 14.3115 2.7584 
20.7483 12.3786 1.18235 
22.377 13.6679 1.74252 
24.4469 12.8058 1.33828 
21.4753 15.7108 1.19957 
22.9924 14.6474 3.48228 
24.2693 15.6439 1.37647 
27.312 12.8949 1.44395 
27.4591 15.7824 1.28858 
25.8406 14.1527 2.8082 
25.7878 14.506 0.206158 
2.84892 17.2681 0.0854945 
1.47367 18.8112 1.54612 
2.63767 17.3028 2.92883 
3.03281 20.268 2.80801 
0.0369773 17.3848 3.07061 
2.97285 20.0334 0.139738 
0.0977087 17.3365 0.135664 
5.55701 17.2908 0.0623893 
4.232 18.5833 1.44339 
6.94006 18.7416 1.34921 
5.70723 17.2219 3.11632 
5.59156 20.0565 2.80805 
11.4007 20.0227 0.230193 
10.059 18.5168 1.69563 
8.46334 17.2917 2.72496 
11.5939 16.9928 2.90379 
8.65134 20.2011 2.76853 
11.5212 20.1542 2.85862 
11.5131 17.1505 0.0122298 
8.60592 17.3204 0.0134621 
12.9281 18.6894 1.45121 
15.9639 18.5949 1.54598 
14.3946 17.2798 2.97565 
14.4215 20.171 2.84426 
14.3521 20.0469 0.0430621 
18.7496 18.7393 1.24297 
17.303 17.1409 2.87687 
20.0791 17.3463 2.86202 
17.4789 19.9396 2.86139 
20.0336 20.3337 2.92454 
21.5774 18.6886 1.33998 
24.4719 18.6994 1.46906 
22.8894 17.2558 2.95149 
23.0156 20.0697 2.90836 
23.011 17.2744 0.0684281 
28.6176 19.9689 2.92031 
27.1619 18.6985 1.34696 
25.7856 17.2024 2.57984 
25.8939 20.175 2.87324 
1.43117 21.5335 1.50609 
1.35801 24.5431 1.3468 
2.87951 23.0707 2.77199 
0.100489 23.0355 2.80305 
2.83739 23.0085 0.124475 
6.00175 22.9058 0.0331601 
4.24606 24.4626 1.39605 
4.39615 21.6125 1.41757 
7.26431 21.4948 1.44765 
5.63765 22.9359 2.96401 
7.41045 24.3505 1.53083 
10.198 21.5618 1.54843 
8.63777 22.9436 2.88246 
11.6363 22.952 3.04829 
9.97954 24.3744 1.56587 
11.5285 22.857 0.130753 
12.9314 21.6198 1.50769 
15.6662 21.6442 1.43283 
14.4133 23.1782 2.79361 
12.8377 24.2925 1.5269 
14.1798 23.0787 0.11367 
17.1484 23.0241 0.0754989 
18.495 21.7144 1.45045 
18.6748 24.4468 1.44036 
17.1466 22.8737 2.85324 
20.1026 22.9198 2.74739 
21.4656 21.4837 1.36796 
24.3711 21.6517 1.29532 
21.47 24.3169 1.46602 
22.97 22.9045 2.79765 
24.4203 24.3709 4.08901 
24.2141 24.3972 1.33232 
27.2283 21.5452 1.3823 
25.6837 23.0489 2.81836 
27.2991 24.2643 1.4887 
1.41586 27.2469 1.47596 
2.80925 25.9621 2.99085 
0.149409 28.6946 2.88185 
4.29723 27.4414 1.40041 
7.21374 27.1295 1.48643 
5.77246 25.987 2.86445 
5.70365 25.8978 0.0236052 
11.3909 28.625 2.9439 
8.53622 28.6341 2.87562 
9.98811 27.2934 1.45578 
8.60534 25.8536 2.93468 
11.3788 25.7572 2.82468 
15.8409 24.7147 1.41022 
12.9299 27.2711 1.52729 
15.7961 27.396 1.27708 
14.2753 25.8595 2.79477 
14.4051 26.1516 0.0682706 
17.2545 28.6649 2.80393 
20.249 28.6843 2.78128 
18.7655 27.2077 1.35415 
17.34 25.851 2.97387 
20.1757 25.947 2.95106 
22.9216 28.642 2.71469 
21.4428 27.3836 1.35994 
23.0181 25.9047 2.91115 
24.3385 27.3239 1.46169 
28.5736 25.9311 3.02215 
25.9248 28.5778 2.75719 
27.3271 27.2882 1.41908 
25.7989 25.949 2.89207 
25.8578 25.7724 0.0483825 
1.39918 1.6792 4.26021 
1.28977 1.45215 7.16242 
2.99295 2.80236 5.88364 
2.75626 0.130611 5.73066 
4.3427 1.47132 4.56874 
7.35638 1.40153 4.44741 
4.14235 1.25041 7.23838 
7.13823 1.39029 7.15937 
5.78138 2.70702 5.92195 
10.0655 1.48382 4.2634 
10.1111 1.36747 7.15953 
8.77582 3.05372 5.92643 
11.5872 2.94797 5.76639 
8.62203 0.00778616 5.69339 
12.806 1.60681 4.14792 
16.0594 1.39062 4.34556 
12.9536 1.54274 7.16731 
15.8431 1.47345 7.15262 
14.3028 2.82373 5.58277 
14.4112 0.100009 5.72235 
18.7168 1.59895 4.23115 
18.7953 1.4522 7.29326 
17.3456 2.85256 5.80441 
20.0509 2.81258 5.62332 
17.4145 0.0851513 5.77861 
21.6294 1.31077 4.31708 
21.5552 1.26953 7.03884 
24.3581 1.25635 7.23728 
23.1403 2.72055 5.75296 
21.6565 4.06274 7.12525 
27.2667 1.23624 4.17481 
28.5978 2.90895 5.55777 
27.2017 1.46782 7.28277 
25.8422 2.56269 5.73557 
28.6413 0.00867138 5.87201 
1.40057 4.29921 4.20183 
1.51653 7.10897 4.37018 
1.27981 4.35368 7.16617 
1.49355 7.0666 7.358 
3.04365 5.81311 5.63866 
0.0192083 5.60082 5.54481 
4.49747 7.11141 4.10192 
7.28292 4.27258 4.38127 
4.26131 4.33645 4.25749 
7.08586 7.14493 4.20964 
4.50924 7.10767 7.04683 
4.16693 4.25347 7.15175 
7.15406 4.36003 7.11069 
5.8284 5.57347 5.72016 
7.28143 7.2446 7.20745 
10.1366 4.27836 4.40223 
9.92694 7.15281 4.29492 
10.27 4.43667 7.21995 
8.53535 5.74425 5.80176 
10.0976 7.27481 7.28563 
11.4761 5.76973 5.54654 
15.8355 4.45675 4.29386 
13.1039 4.25137 4.26434 
12.9117 7.18078 4.31358 
15.7374 7.28607 4.30384 
13.0359 4.27263 7.15634 
15.5532 4.22872 7.29814 
13.1288 7.20059 7.2565 
14.2893 5.81297 5.54736 
15.5975 7.22812 7.33903 
18.7134 4.381 4.49171 
18.5831 7.12449 4.43334 
18.9379 4.39772 7.02722 
17.1224 5.79138 5.73467 
18.7642 7.17662 7.16331 
20.2912 5.92628 5.75858 
21.5478 4.28334 4.23664 
21.5294 7.17348 4.1881 
24.3277 7.32701 4.30051 
21.6338 7.13756 7.24615 
23.0441 5.701 5.53295 
24.5127 7.18967 7.18887 
24.4112 4.26237 6.91968 
27.2601 4.38648 4.18372 
27.0224 7.33686 4.39664 
27.1425 4.11185 7.00306 
25.9824 5.68972 5.70975 
27.4009 7.00973 7.10374 
1.34625 9.87748 4.46818 
1.43955 10.1069 7.24027 
2.86031 8.57674 5.91307 
2.9109 11.3925 5.74428 
4.28173 9.9031 4.46844 
7.14463 10.123 4.24371 
4.23834 9.8566 7.21457 
5.70465 8.66126 5.78919 
7.15935 10.1392 7.18862 
5.67924 11.6233 5.92379 
10.0401 10.0676 4.3756 
8.52065 8.6543 5.74173 
10.0044 10.0683 7.38629 
11.4667 8.65173 5.78891 
8.68031 11.6242 5.81688 
11.3926 11.5761 5.86448 
12.8826 9.99037 4.25258 
15.6104 9.92228 4.56661 
12.8943 10.1172 7.09069 
14.3341 8.59928 5.87645 
15.7707 10.2358 7.32403 
14.2536 11.5348 5.81236 
18.3173 10.0404 4.37536 
17.1276 8.76622 5.78172 
18.524 10.1001 7.2362 
20.0725 8.65536 5.87558 
17.0735 11.5244 5.83344 
19.9961 11.6198 5.57807 
21.3756 10.2144 4.26005 
24.2247 10.0926 4.25735 
21.4205 10.0425 7.32725 
22.956 8.70209 5.72736 
22.851 11.6857 5.91468 
24.2239 10.0693 7.24913 
27.1705 9.88637 4.48716 
28.613 8.66878 5.88462 
28.5073 11.4537 5.90552 
25.6616 8.77618 5.6893 
27.1384 10.1247 7.31031 
25.7826 11.5749 5.80436 
1.5082 12.7111 4.41426 
1.40167 15.7544 4.40605 
1.40655 12.8466 7.39353 
1.33492 15.7769 7.23648 
2.84182 14.1458 5.70922 
4.30142 12.9827 4.35299 
4.22016 15.732 4.29705 
7.01114 12.8253 4.38359 
7.14449 15.8414 4.50346 
4.15233 12.8784 7.26929 
6.99691 13.1013 7.30536 
4.20325 15.8103 7.2037 
5.63125 14.4582 5.73788 
7.06863 16.0779 7.25304 
10.0459 13.0457 4.25519 
10.1632 15.8346 4.58502 
9.89146 12.9787 7.09464 
8.3268 14.3337 5.75143 
9.80314 15.7836 7.17156 
11.5751 14.4925 5.85833 
12.7012 12.8897 4.38014 
15.5915 12.94 4.24446 
12.9822 15.9051 4.42084 
15.6361 15.7724 4.36444 
12.8648 12.9788 7.47717 
15.7652 12.9068 7.20619 
12.9749 15.874 7.36531 
14.2547 14.3323 5.74698 
15.6835 15.8136 7.22949 
18.4882 13.0395 4.23099 
18.7304 15.6593 4.41569 
18.7167 13.0998 7.09777 
17.1397 14.408 5.86739 
18.5037 15.9204 7.14114 
20.0378 14.227 5.507 
21.538 12.9801 4.29944 
21.4321 15.9079 4.50475 
24.4592 12.9006 4.35729 
21.2591 13.0036 7.36215 
21.4473 15.6966 7.13589 
22.8736 14.4114 5.83039 
24.3318 15.7696 7.29695 
24.2962 12.9238 7.28626 
24.6728 15.692 4.43095 
27.2299 12.8552 4.28539 
27.2595 15.8055 4.27993 
28.7036 14.2111 5.78504 
27.1224 12.891 7.22808 
25.8589 14.1205 5.82489 
27.064 15.7231 7.23053 
1.42105 18.7998 4.45392 
1.4202 18.7998 7.10124 
2.80863 17.1325 5.81486 
2.87971 20.2612 5.81669 
4.19979 18.6418 4.55764 
7.24513 18.7729 4.20124 
4.10192 18.6904 7.20761 
5.53022 17.2858 5.77967 
7.08148 18.8962 7.11422 
5.75658 20.2487 5.69418 
10.1995 18.5409 4.32757 
8.54964 17.3975 5.84601 
10.146 18.8112 7.2015 
11.5847 17.2916 5.89229 
8.66885 20.1672 5.7106 
11.5359 20.1319 5.59545 
13.007 18.9392 4.21557 
15.6903 18.8379 4.30499 
12.8067 18.7939 7.27323 
14.2247 17.379 5.85679 
15.7395 18.7402 7.04983 
14.2738 20.1336 5.69293 
18.518 18.6745 4.32854 
17.1515 17.2655 5.50635 
18.5591 18.7181 7.2259 
19.8066 17.2987 5.76927 
17.2707 20.088 5.79156 
20.1407 20.0985 5.74686 
21.4179 18.6828 4.49087 
21.5038 18.5732 7.12623 
23.1147 17.2294 5.62554 
23.0184 20.1733 5.60283 
24.3539 18.5216 7.17146 
24.7146 18.6349 4.29156 
27.2612 18.7042 4.31927 
28.6547 20.1175 5.79903 
28.5838 17.3668 5.82954 
25.9864 17.1311 5.76325 
27.0552 18.7563 7.23173 
25.7713 20.2237 5.86193 
1.35392 21.4394 4.22891 
1.44968 24.5564 4.37206 
1.41089 21.5579 7.20911 
2.78476 22.9262 5.62554 
1.51328 24.4771 7.31514 
0.0513736 22.9834 5.80273 
4.27128 21.5422 4.373 
7.07637 21.557 4.1385 
7.136 24.3696 4.17434 
4.19009 21.6207 7.34355 
7.24396 21.3869 7.28382 
4.19418 24.3166 7.00815 
5.79467 22.8012 5.85962 
7.18753 24.4496 7.13997 
10.11 21.4665 4.36286 
10.1172 24.4547 4.24513 
10.1355 21.4897 7.24471 
8.42984 22.891 5.70025 
9.90262 24.4658 7.08397 
11.3567 22.9972 5.86925 
13.0386 21.5623 4.30686 
15.7715 21.4043 4.26357 
13.0174 24.5311 4.30869 
12.9384 21.5083 7.086 
15.8953 21.5048 7.15713 
14.3217 22.9 5.7311 
15.6064 24.3703 7.05047 
12.7676 24.3631 7.22183 
18.7016 21.5281 4.43829 
18.8475 24.4715 4.22289 
18.7118 21.4594 7.28023 
17.1529 23.0117 5.91753 
20.0759 22.9947 5.69368 
18.7326 24.3073 7.08631 
21.677 21.6764 4.32853 
24.4681 21.5893 4.23477 
21.4758 21.4197 7.04326 
21.5505 24.365 7.23896 
22.9632 23.1366 5.74478 
24.5998 24.4715 7.05235 
24.2768 21.6742 6.98795 
27.2059 21.6977 4.29917 
27.2738 24.4792 4.20101 
27.2322 21.6266 7.05005 
25.8795 23.0154 5.55356 
27.3683 24.4838 7.16273 
1.36386 27.3564 4.18633 
1.4263 27.208 7.30392 
2.80135 25.9714 5.79741 
4.25438 24.6108 4.31298 
4.28056 27.3201 4.24767 
7.25335 27.3136 4.29025 
5.72069 28.5858 5.63958 
4.20173 27.3047 7.0958 
5.76288 25.899 5.71402 
7.17794 27.4082 7.12665 
9.9763 27.2465 4.46628 
11.5056 28.6998 5.66792 
8.51403 25.796 5.65379 
10.0658 27.1848 7.18746 
11.6128 26.0033 5.84601 
15.848 24.6179 4.23238 
13.0123 27.3415 4.33062 
15.8786 27.3351 4.30349 
12.9089 27.2877 7.20982 
14.2573 25.7391 5.81924 
15.748 27.4784 7.14665 
18.6525 27.4209 4.12895 
19.9261 28.6867 5.59929 
17.2459 25.8459 5.79007 
18.6688 27.3778 7.35588 
19.913 25.8296 5.67783 
21.4091 24.6143 4.42959 
21.4461 27.3178 4.32191 
24.4437 27.2588 4.10632 
23.0193 28.7116 5.50551 
21.4765 27.229 6.9591 
22.9614 25.9217 5.75377 
24.462 27.1831 6.95503 
27.3196 27.3612 4.36983 
25.8656 28.7087 5.70317 
28.6698 26.0646 5.93161 
25.95 25.8427 5.60717 
27.2132 27.2788 7.1807 
2.86287 2.87062 8.75225 
2.89788 0.0374911 8.82214 
1.32627 1.47986 10.0641 
2.98411 2.80582 11.6507 
0.106134 0.000757791 11.5536 
5.7703 2.90575 8.66279 
5.72698 0.131954 8.45303 
4.12888 1.45346 10.1117 
7.27992 1.27864 10.1328 
5.72869 2.71039 11.4849 
8.71282 2.64285 8.73353 
11.4724 3.0541 8.71211 
8.64113 0.0203949 8.40078 
11.5229 0.145085 8.59001 
10.0793 1.51443 10.1774 
8.64527 2.88838 11.5851 
11.5025 2.94019 11.5137 
14.4881 2.77939 8.60843 
14.2585 0.00187219 8.59377 
13.0188 1.53079 9.96876 
15.6945 1.47348 10.1339 
14.4111 2.98553 11.563 
17.3784 3.03224 8.36485 
20.2408 2.95263 8.65354 
18.6092 1.40266 9.94978 
17.109 2.75251 11.5096 
20.0627 2.91211 11.2642 
23.0772 2.8489 8.77505 
21.5522 1.28059 9.93908 
24.3878 1.30885 10.0823 
23.119 2.71081 11.2763 
28.6564 2.86231 8.58213 
25.751 2.87505 8.54372 
28.5915 2.75318 11.4319 
27.3515 1.43409 10.0134 
25.8422 2.86091 11.4664 
2.90385 5.61842 8.65325 
0.00712426 5.82579 8.64416 
1.40736 4.30801 9.89143 
1.58392 7.13425 9.80768 
3.00204 5.60006 11.4833 
5.9162 5.75008 8.54117 
4.28391 4.32374 9.98612 
4.46323 7.15497 10.1382 
7.04334 4.2932 10.0812 
7.07846 7.24476 10.1492 
5.70158 5.48827 11.6811 
8.64836 5.66397 8.66381 
11.5003 5.91357 8.6391 
10.0883 4.31948 9.94646 
9.97155 7.19169 10.1887 
8.4043 5.72135 11.4918 
11.5044 5.73707 11.6534 
14.3397 5.83721 8.91765 
15.8483 4.33007 9.91797 
12.9079 4.53754 10.0121 
12.8322 7.29882 10.0399 
15.8205 7.23168 10.1351 
14.5167 6.02512 11.6237 
17.1836 5.77598 8.55033 
20.1887 5.67626 8.33172 
18.7374 4.38045 10.0073 
18.4186 7.12242 9.98706 
17.2432 5.68373 11.5894 
20.0039 5.651 11.4233 
23.1142 5.56001 8.45827 
21.6275 4.2464 10.0388 
21.7217 7.27828 10.0455 
23.074 5.72114 11.4735 
24.465 7.16515 10.0888 
24.472 4.30767 9.96294 
25.7301 5.6758 8.59245 
28.7118 5.63731 11.4556 
27.4152 4.2627 9.97684 
27.3849 7.12544 10.1989 
25.8109 5.60583 11.5153 
2.96331 8.46419 8.51557 
2.89024 11.3989 8.66341 
1.49151 10.0071 10.2164 
2.81247 8.49558 11.4167 
3.0413 11.5553 11.5732 
0.118411 8.51398 11.3814 
0.0158733 11.4208 11.6317 
5.77085 8.49001 8.59606 
5.54419 11.4004 8.7513 
4.35176 9.88894 10.3132 
7.10973 9.99818 10.0499 
5.76056 8.37742 11.6151 
5.75859 11.5107 11.6263 
8.51411 8.51157 8.64808 
11.5164 8.74017 8.7008 
8.4308 11.5561 8.66469 
11.5066 11.4274 8.69655 
10.0359 9.90175 10.1863 
8.61122 8.6047 11.5778 
11.4124 8.58341 11.5733 
8.76592 11.4541 11.3251 
11.4661 11.5065 11.4473 
14.0914 8.77881 8.72557 
14.3884 11.5946 8.66034 
12.8937 10.1737 10.0775 
15.7426 10.1378 10.0784 
14.2794 8.70955 11.6007 
14.3608 11.6613 11.5516 
17.1788 8.69753 8.78687 
19.8909 8.65687 8.78917 
17.1968 11.5407 8.74786 
19.823 11.4759 8.45172 
18.4667 10.1906 10.1674 
17.2146 8.69097 11.5621 
20.2178 8.38331 11.345 
17.132 11.6018 11.7604 
20.1337 11.4722 11.5387 
22.982 8.57243 8.49049 
22.9578 11.5867 8.66905 
21.4357 9.9711 9.99885 
23.0668 8.71748 11.5542 
22.9166 11.3757 11.6512 
24.5466 9.97593 10.221 
28.6737 11.3268 8.7438 
28.5747 8.67558 8.58165 
25.9251 8.43097 8.56006 
25.8383 11.4757 8.73514 
27.2999 10.1489 10.0862 
25.9581 8.70027 11.692 
25.9274 11.4046 11.6674 
2.89918 14.4355 8.5905 
1.43654 13.0102 10.16 
1.34648 15.7307 9.96739 
2.71667 14.2954 11.4706 
5.65998 14.4055 8.70533 
4.29073 12.9601 10.131 
6.98107 13.0912 10.0789 
4.1061 15.7303 10.1637 
6.94518 15.7719 10.0129 
5.62904 14.3414 11.4857 
8.50618 14.4135 8.68579 
11.4007 14.3126 8.60175 
9.98091 12.9734 10.1113 
9.89707 15.5532 10.0857 
8.47169 14.2301 11.6311 
11.4782 14.474 11.5346 
14.4392 14.3521 8.58621 
12.9888 13.2457 10.2204 
15.6954 13.0407 10.1378 
12.9149 15.8632 10.0914 
15.7391 15.8435 10.0237 
14.3622 14.5026 11.6499 
17.0539 14.0869 8.67649 
19.8007 14.3379 8.77666 
18.5793 12.8105 10.3497 
18.6126 15.9706 10.1257 
17.2157 14.3798 11.374 
20.1111 14.4226 11.4418 
22.8522 14.3614 8.66952 
21.4471 12.9251 10.0105 
21.4692 15.8123 9.93275 
22.9913 14.3488 11.2862 
24.4533 15.8497 9.95336 
24.3444 12.6997 10.2472 
28.6889 14.2378 8.41704 
25.6498 14.3078 8.66572 
28.5879 14.267 11.4353 
27.3257 12.8895 10.0587 
27.4223 15.7134 9.95181 
25.7952 14.3866 11.3022 
2.60857 17.2187 8.60166 
2.69728 20.153 8.67158 
1.26436 18.593 10.0123 
2.64952 17.1991 11.6009 
2.83868 20.1016 11.4575 
4.04495 18.621 10.1931 
5.64463 17.2999 8.78165 
5.54696 19.9734 8.68023 
7.15077 18.5795 10.1938 
5.9057 17.2351 11.5379 
5.51097 19.9903 11.3183 
8.4472 17.3009 8.63721 
11.2882 17.1886 8.46756 
8.67254 20.1147 8.69944 
11.4865 20.1578 8.65091 
10.0264 18.5116 10.08 
8.53122 17.1447 11.5925 
11.3842 17.3237 11.3884 
8.56054 19.8151 11.6417 
11.4496 20.1689 11.289 
14.4038 17.2743 8.56777 
14.3528 20.2944 8.70851 
12.9682 18.7623 9.87015 
15.6426 18.6923 10.0811 
14.323 17.282 11.6068 
14.5965 20.1859 11.5988 
17.1718 17.2346 8.6079 
20.1153 17.2284 8.7278 
17.0691 20.0148 8.6578 
20.2888 20.1706 8.65155 
18.8297 18.58 9.97302 
17.2992 17.3723 11.4274 
20.2104 17.149 11.489 
17.2633 20.07 11.3994 
20.0087 19.9948 11.4369 
22.8488 17.1605 8.46128 
22.9574 20.0953 8.4793 
21.5496 18.5978 9.92473 
22.9246 17.1165 11.3511 
23.0076 20.0904 11.4019 
24.3855 18.7638 9.983 
28.5266 20.227 8.66691 
28.5339 17.3619 8.70382 
25.8103 17.2508 8.69871 
25.7285 20.1972 8.41747 
28.6821 19.878 11.4123 
28.4513 17.2025 11.3696 
27.1262 18.8223 9.99774 
26.006 17.1259 11.3417 
25.8042 20.0383 11.5341 
2.80569 22.9487 8.4055 
1.42212 24.2719 10.084 
1.27662 21.5312 10.0346 
2.79163 22.8525 11.5566 
5.64414 22.9011 8.63273 
4.1527 24.2748 10.0294 
7.20848 24.4149 10.0598 
4.28292 21.4753 9.87916 
7.50215 21.4698 10.1426 
5.80957 22.8653 11.3302 
8.73504 22.9547 8.33344 
11.4532 22.9989 8.66272 
9.99287 24.372 10.0498 
9.92257 21.6755 10.1178 
8.53916 22.9706 11.5547 
11.4227 22.9794 11.4591 
14.1551 23.0409 8.66749 
12.8387 21.7312 9.99452 
15.8225 21.5545 10.0767 
12.6824 24.5348 10.1067 
15.7183 24.4779 10.1323 
14.4466 22.947 11.4251 
17.1545 22.9706 8.63203 
19.9637 22.9947 8.66974 
18.7199 21.4995 9.91634 
18.6422 24.5044 10.0846 
17.2683 22.9596 11.3555 
20.2559 22.8867 11.4536 
23.0212 23.1572 8.47642 
21.6108 21.4445 10.0944 
24.3535 24.4766 9.91934 
21.6453 24.2507 9.97815 
24.2592 21.6028 9.88931 
22.9894 22.8623 11.52 
28.6924 22.9615 8.53021 
25.9501 23.0797 8.51263 
27.235 24.3341 10.0854 
25.6408 22.894 11.3636 
28.5969 22.9774 11.5495 
27.0512 21.7221 10.0668 
2.93994 25.9207 8.563 
0.0243949 25.9983 8.74154 
0.053368 28.593 8.74195 
2.75035 28.5586 11.7393 
2.74799 25.757 11.4394 
1.57009 27.3598 10.0425 
0.0216655 25.9262 11.4732 
5.62106 25.8703 8.50894 
4.27787 27.2879 10.0468 
7.3977 27.2943 9.91666 
5.95067 25.7322 11.36 
5.8792 28.6441 11.3689 
8.63889 25.7865 8.54701 
11.4705 25.813 8.686 
11.5236 28.7069 11.3701 
9.97804 27.3032 10.1409 
8.48414 25.8483 11.4999 
11.3929 25.8893 11.5 
8.62633 28.6151 11.5864 
14.3424 25.8806 8.51936 
14.3199 28.6214 11.3527 
12.939 27.2685 9.90654 
15.7745 27.3306 9.89767 
14.3515 25.8819 11.5961 
20.2523 28.6189 8.54333 
17.2677 28.6889 8.7699 
17.2157 25.7457 8.50968 
20.1409 25.8591 8.62263 
20.1353 25.5836 11.4066 
18.5518 27.1303 9.92651 
17.1904 25.8366 11.5063 
20.027 28.5229 11.5145 
17.1662 28.6599 11.3876 
22.7359 28.6256 8.53394 
22.9706 25.8824 8.55629 
22.9898 25.7647 11.4912 
24.2909 27.1731 9.85412 
21.4617 27.1829 10.0512 
22.9633 28.5646 11.4043 
25.8517 28.683 8.58623 
25.8295 25.7848 8.41229 
25.6573 25.9362 11.511 
27.2202 27.1372 10.0289 
25.7649 28.6048 11.3601 
1.45973 1.35564 12.953 
0.11417 2.85116 14.2287 
1.66711 1.39961 15.7191 
3.12222 2.99093 14.4171 
4.32511 1.27022 12.9518 
7.18636 1.35767 13.0346 
4.53699 4.04939 13.0287 
4.4383 1.16395 15.7248 
7.0774 1.3048 15.9525 
5.75313 2.76774 14.4961 
9.98102 1.47665 12.885 
11.6193 2.77113 14.1946 
9.95626 1.48402 15.7679 
8.5639 2.75243 14.4412 
8.60209 0.0185972 14.5331 
13.0146 1.43605 12.7302 
15.7606 1.307 12.7794 
14.3426 2.94129 14.1766 
12.913 1.5629 15.7977 
15.7804 1.46967 15.8574 
18.8601 1.35356 12.7657 
20.152 0.0772414 14.3424 
18.6191 1.45066 15.9507 
16.9894 2.73542 14.3799 
17.2386 0.244603 14.4674 
20.0674 2.97049 14.4475 
21.6355 1.54212 12.842 
24.5295 1.49541 12.9315 
21.5004 1.46563 15.7296 
24.4207 1.39371 15.7532 
22.9805 2.7028 14.3821 
27.3747 1.35255 12.6903 
25.8645 2.95357 14.2876 
26.0456 0.132197 14.2945 
27.4316 1.37405 15.6961 
1.55397 4.35624 12.8018 
1.40989 6.94398 12.6604 
0.0881131 5.70293 14.3369 
2.97697 5.65391 14.2327 
1.59906 4.25761 15.8286 
1.51288 7.05475 15.888 
4.35275 7.11033 13.1363 
7.20397 4.18289 12.925 
7.23916 7.12558 13.1262 
5.76999 5.7456 14.4085 
4.2558 7.08147 15.7755 
7.14294 4.33766 15.7611 
4.38868 4.24221 15.9252 
7.03686 7.22563 15.8349 
10.0821 4.16661 13.0096 
9.90864 7.12407 12.7955 
11.2763 5.78955 14.3233 
8.70771 5.57966 14.3794 
10.0428 4.25439 15.9684 
9.79734 7.20675 15.8275 
12.9245 4.51457 12.8276 
15.7846 4.32016 12.9691 
12.8452 7.31399 12.8869 
15.8073 7.33378 12.9774 
12.9156 4.42846 15.7062 
15.7958 4.30941 15.7792 
12.8278 7.04402 15.7124 
15.7772 7.17499 15.7914 
14.4441 5.68927 14.37 
18.6709 4.21649 12.977 
18.6467 7.15697 12.9121 
17.1702 5.65522 14.3146 
20.2012 5.75967 14.2194 
18.6652 4.41532 15.7998 
18.7378 6.99146 15.8722 
24.3989 4.15669 12.9828 
21.4962 4.18561 12.6585 
21.6093 7.17036 12.8503 
24.3688 7.04735 12.9301 
24.5074 4.22688 15.8447 
21.5368 4.34661 15.8726 
21.515 7.18526 15.7333 
24.4923 7.07073 15.6987 
23.0534 5.58467 14.4397 
27.2282 4.19093 12.889 
27.3657 7.07526 12.9972 
25.8615 5.6415 14.3165 
27.6412 4.30437 15.8598 
27.2751 6.91202 15.7958 
1.62382 9.94589 12.921 
2.87615 8.54562 14.1949 
0.0944814 8.33296 14.3132 
0.204554 11.3688 14.31 
1.53618 9.82719 15.9009 
2.83698 11.3718 14.4856 
4.43217 9.90642 13.0115 
7.18809 10.0476 12.7961 
5.88737 8.68642 14.3072 
5.70247 11.417 14.2057 
4.33479 9.90596 15.6549 
7.0937 10.036 15.8116 
10.0711 10.0468 12.8945 
8.38543 11.2882 14.2311 
8.7116 8.6133 14.3107 
10.106 9.83229 15.8282 
11.2768 8.56435 14.3777 
11.3548 11.449 14.4804 
12.8077 10.01 13.1223 
15.6973 10.0025 13.0069 
12.8936 10.0614 15.8086 
15.6452 10.1545 15.845 
14.2543 8.48478 14.4143 
14.0698 11.4767 14.5553 
18.7122 9.92998 12.8472 
17.2155 11.497 14.3 
18.5509 9.96176 15.8088 
19.9466 8.44108 14.4268 
17.3479 8.53648 14.3839 
20.1161 11.4284 14.4329 
21.4757 10.0776 12.9441 
24.4597 9.94675 13.1945 
21.4435 10.0355 15.7022 
24.3771 10.0986 15.6574 
22.9024 11.5967 14.358 
22.7756 8.68896 14.3786 
27.6894 9.9407 12.9422 
26.061 11.2387 14.2652 
27.3939 10.0796 15.5926 
25.9528 8.53522 14.5111 
0.0115084 14.3409 14.2768 
1.42137 12.9158 12.9582 
1.30776 15.7068 13.0377 
3.00968 14.4482 14.3603 
1.46645 13.0545 15.77 
1.47371 15.7269 15.8313 
4.22653 12.8457 13.1736 
7.08041 12.9078 13.1279 
4.22374 15.7178 12.7639 
7.18044 15.8528 13.2528 
5.58404 14.4137 14.4531 
4.40455 15.8394 15.8323 
4.2252 12.8919 15.8711 
7.17663 12.8639 15.7486 
7.17874 15.7452 15.8388 
9.91359 12.7625 12.961 
10.0024 15.6821 13.0567 
10.0629 12.8553 15.8545 
10.0401 15.5753 15.9191 
8.56108 14.2263 14.3792 
11.4911 14.2209 14.498 
12.8962 12.9606 12.9519 
15.666 13.13 13.0776 
12.8839 15.8453 12.9465 
15.8501 15.9364 12.918 
12.7714 12.7176 15.7786 
15.801 12.9972 15.8035 
12.8336 15.7969 15.6646 
15.8632 15.7833 15.7193 
14.4496 14.5616 14.4404 
18.5851 13.1358 13.0167 
18.8723 15.8708 12.9825 
20.1565 14.361 14.3478 
18.5627 12.8891 15.7671 
18.6387 15.8307 15.8154 
17.1734 14.3445 14.4215 
21.6236 13.0923 12.8478 
21.6499 15.8192 12.8213 
24.3465 12.8187 12.8991 
24.3662 15.7445 12.8744 
21.6536 12.89 15.9281 
24.4223 12.8014 15.621 
21.4215 15.7573 15.6719 
24.4964 15.869 15.7157 
23.1364 14.3652 14.3587 
25.7997 14.3358 14.1466 
27.2995 12.7597 12.9113 
27.2318 15.6708 12.6543 
27.272 12.8378 15.8507 
27.3658 15.7761 15.7705 
3.00449 20.2191 14.2955 
1.36894 18.5338 12.8776 
4.05348 18.5438 12.9953 
2.95567 17.0507 14.4042 
1.52105 18.7047 15.9021 
0.0742031 17.1692 14.3991 
0.0392934 20.0476 14.3626 
5.76521 20.1141 14.2233 
7.25927 18.5245 13.0882 
5.44566 17.0581 14.298 
4.27697 18.7875 15.8124 
7.22459 18.6672 15.5955 
10.0521 18.7257 12.9521 
11.4877 17.2325 14.2315 
11.5717 20.1449 14.4152 
8.75278 20.169 14.534 
10.1325 18.5764 15.8086 
8.72677 17.0991 14.6387 
12.9251 18.8801 12.8319 
15.8985 18.6139 12.9471 
14.5865 20.1163 14.3372 
14.5105 17.2587 14.4461 
12.9785 18.7496 15.9376 
15.7694 18.6576 15.7981 
17.3062 17.2073 14.2675 
18.7806 18.532 13.0033 
18.7718 18.855 15.805 
20.1538 20.1781 14.374 
17.1825 20.1154 14.3702 
20.3388 17.2845 14.3662 
22.9065 20.0508 14.3213 
21.4854 18.7869 12.7214 
24.4106 18.5893 12.7967 
21.4302 18.9267 15.942 
24.4995 18.6582 15.7836 
22.992 17.2578 14.3661 
25.8131 20.0537 14.2666 
27.338 18.5417 12.9007 
27.5233 18.6008 15.7104 
25.8235 17.1938 14.3741 
2.86741 22.9182 14.243 
1.36582 21.2394 12.9291 
1.37173 24.3563 12.8976 
1.53602 21.4128 15.8294 
1.35743 24.3913 15.7037 
0.0402166 22.9226 14.3973 
4.39212 21.505 12.8151 
7.19518 21.5717 12.8942 
4.35365 24.3717 12.5883 
7.26488 24.3805 12.9033 
5.70806 22.9125 14.2057 
4.2636 24.1681 15.8549 
4.42188 21.4081 15.7462 
7.24624 21.3919 15.9296 
7.1522 24.3217 15.7445 
11.3777 22.9746 14.2318 
10.0719 24.4099 12.9318 
9.98836 21.558 12.9075 
8.51787 23.0386 14.3151 
10.1306 21.5726 15.8111 
10.0719 24.4904 15.9436 
15.737 24.3858 12.8172 
12.9065 21.5121 12.9723 
15.7828 21.6555 12.9495 
12.91 24.3669 12.9934 
14.4211 23.1035 14.3463 
12.8377 21.7791 15.7005 
15.8158 21.8825 15.9029 
18.7234 21.5123 12.9563 
18.6998 24.1991 12.8015 
18.6978 21.5968 15.8762 
18.6669 24.4017 15.8014 
20.1077 22.881 14.5402 
17.1894 23.0277 14.5381 
21.3627 21.4752 12.9606 
24.478 24.1851 12.8157 
21.5703 24.3133 13.0022 
24.355 21.6226 12.8567 
22.9547 23.0949 14.399 
21.7574 21.4092 15.8789 
24.5831 21.6245 15.6055 
21.7037 24.4174 15.9042 
24.4171 24.3862 15.7621 
25.9407 22.9977 14.2562 
27.2277 21.5399 13.0177 
27.0059 24.3656 12.8555 
27.4944 21.474 15.864 
27.4026 24.1668 15.5839 
1.32826 27.1323 12.9139 
2.99991 25.4742 14.2604 
2.96304 28.4414 14.2604 
1.43812 27.0908 15.5506 
0.176375 28.5825 14.3989 
4.41157 27.0485 12.7377 
5.54485 25.62 14.261 
7.20307 27.1314 12.8902 
5.71768 28.6106 14.2999 
4.29013 27.1129 15.7207 
6.97226 27.2306 15.6835 
9.99012 27.243 12.9861 
8.63355 25.8485 14.2667 
11.4106 25.9145 14.2906 
11.6557 28.54 14.2415 
10.1556 27.1618 15.8639 
12.8544 27.2436 12.7527 
15.8133 27.3037 12.9801 
14.2282 28.5968 14.2677 
14.2994 25.8047 14.323 
12.88 24.64 15.9337 
15.827 24.6521 15.8168 
12.885 27.2735 15.7523 
15.7358 27.4674 15.7436 
18.5804 27.2562 12.8821 
17.2105 26.0282 14.3547 
18.625 27.4117 15.6617 
20.0559 25.9155 14.5052 
21.4773 27.2066 12.8203 
24.2279 27.2451 12.9259 
22.8807 25.7809 14.2438 
22.8607 28.6754 14.2007 
21.4949 27.2649 15.7533 
24.3921 27.3403 15.9289 
27.203 27.3015 12.7704 
25.7773 25.8326 14.2599 
28.5909 25.7922 14.2725 
27.3018 27.1275 15.6752 
1.53517 1.43899 18.5955 
3.0615 2.85729 17.1903 
0.171626 2.93066 17.1738 
0.0215738 0.0182031 17.2049 
2.9538 2.79997 20.085 
0.0773299 2.88051 20.227 
4.37258 1.32007 18.6124 
7.36064 1.32157 18.8947 
5.83924 2.79691 17.4469 
5.74761 2.86957 19.9818 
5.73209 0.0148777 20.1481 
10.1306 1.45023 18.6749 
8.70562 2.88382 17.4056 
11.4713 2.77166 17.2134 
8.88893 2.88363 20.2313 
11.45 2.87918 20.1847 
11.4488 0.0331344 20.1788 
8.74344 0.0430265 20.2799 
12.8274 1.67818 18.8295 
15.7073 1.2807 18.6569 
14.3613 2.74697 17.2391 
14.326 2.94417 20.081 
18.5253 1.47486 18.5482 
17.162 2.77484 17.2265 
20.0938 3.0925 17.1202 
20.0116 0.0426399 17.1313 
17.2551 2.87939 19.9485 
20.1246 2.71131 20.0453 
17.0982 0.00344542 20.0855 
20.14 0.0122004 19.836 
21.6893 1.42893 18.6192 
22.9411 2.84789 17.2099 
24.5616 1.42581 18.594 
22.9188 0.0451993 17.1534 
23.0442 2.79336 20.1918 
27.3776 1.45023 18.6073 
26.2836 2.87756 17.1811 
25.9337 0.0353423 17.0786 
25.8774 2.80964 20.0423 
25.8 0.00158494 20.1645 
1.5003 4.14284 18.7624 
1.48901 7.15388 18.7962 
2.91536 5.78131 17.4614 
0.0172251 5.68945 17.4445 
2.91339 5.70267 20.1486 
0.0346681 5.77739 20.2172 
4.22962 4.40948 18.7485 
7.18801 4.45589 18.8165 
4.50712 7.25271 18.6838 
5.65684 5.75521 17.1972 