ITEM: TIMESTEP
29040
ITEM: NUMBER OF ATOMS
18
ITEM: BOX BOUNDS pp pp pp
0.0000000000000000e+00 2.8712000000000000e+01
0.0000000000000000e+00 2.8712000000000000e+01
0.0000000000000000e+00 2.8712000000000000e+01
ITEM: ATOMS x y z c_cna 
18.7109 10.1012 1.4281 5 
19.9451 11.3354 3.26576 5 
21.5266 9.94714 1.42817 5 
22.9299 11.5228 2.85067 5 
20.7822 12.1723 1.42819 5 
22.93 11.5228 0.00580755 5 
18.5569 12.9169 1.42814 5 
20.1324 14.3203 2.8506 5 
20.1325 14.3203 0.00579944 5 
22.2802 13.6708 1.42833 5 
24.5054 12.9262 1.4283 5 
21.5357 15.896 1.42829 5 
23.1171 14.5076 3.26583 5 
24.3514 15.742 1.42831 5 
21.5311 12.9215 4.26238 5 
19.9452 11.3355 28.3025 5 
23.1172 14.5076 28.3027 5 
21.5312 12.9216 27.306 5 
ITEM: TIMESTEP
29041
ITEM: NUMBER OF ATOMS
18
ITEM: BOX BOUNDS pp pp pp
0.0000000000000000e+00 2.8712000000000000e+01
0.0000000000000000e+00 2.8712000000000000e+01
0.0000000000000000e+00 2.8712000000000000e+01
ITEM: ATOMS x y z c_cna 
18.7109 10.1012 1.4281 5 
19.9451 11.3354 3.26576 5 
21.5266 9.94714 1.42817 5 
22.9299 11.5228 2.85067 5 
20.7822 12.1723 1.42819 5 
22.93 11.5228 0.00580755 5 
18.5569 12.9169 1.42814 5 
20.1324 14.3203 2.8506 5 
20.1325 14.3203 0.00579944 5 
22.2802 13.6708 1.42833 5 
24.5054 12.9262 1.4283 5 
21.5357 15.896 1.42829 5 
23.1171 14.5076 3.26583 5 
24.3514 15.742 1.42831 5 
21.5311 12.9215 4.26238 5 
19.9452 11.3355 28.3025 5 
23.1172 14.5076 28.3027 5 
21.5312 12.9216 27.306 5 
