ITEM: TIMESTEP
2040
ITEM: NUMBER OF ATOMS
18
ITEM: BOX BOUNDS pp pp pp
0.0000000000000000e+00 2.8712000000000000e+01
0.0000000000000000e+00 2.8712000000000000e+01
0.0000000000000000e+00 2.8712000000000000e+01
ITEM: ATOMS x y z c_cna 
15.3887 15.64 15.6401 5 
17.2264 14.4057 14.4059 5 
19.064 15.64 15.6401 5 
15.804 18.625 15.8274 5 
17.2264 17.2215 14.2519 5 
18.6488 18.6249 15.8274 5 
15.8041 15.8273 18.6249 5 
17.2264 14.2516 17.2216 5 
18.6488 15.8273 18.6249 5 
14.3923 17.2262 17.2262 5 
15.389 18.8122 18.8122 5 
17.2265 16.4769 16.4773 5 
17.2265 17.9755 17.975 5 
19.064 18.8121 18.8122 5 
20.0606 17.2261 17.2262 5 
17.2265 20.2007 17.2308 5 
17.2265 17.2308 20.2003 5 
17.2265 20.0465 20.0464 5 
