ITEM: TIMESTEP
2000
ITEM: NUMBER OF ATOMS
2001
ITEM: BOX BOUNDS pp pp pp
0.0000000000000000e+00 2.8712000000000000e+01
0.0000000000000000e+00 2.8712000000000000e+01
0.0000000000000000e+00 2.8712000000000000e+01
ITEM: ATOMS x y z 
1.24214 1.28118 1.56179 
2.87542 2.87487 2.77797 
4.21807 1.47545 1.47794 
7.27738 1.42499 1.41794 
5.62938 2.94637 2.80207 
5.8409 0.00658706 2.87088 
10.2371 1.59062 1.26491 
8.65126 2.87035 2.69059 
11.5676 2.97501 2.89562 
8.65479 0.0894525 2.74205 
11.4693 0.086492 2.86515 
8.52494 2.92427 0.0137758 
14.2236 2.89533 0.0547689 
13.0237 1.33936 1.35795 
15.7659 1.4205 1.60454 
14.2485 2.6565 3.04483 
14.5632 0.0199909 0.0292099 
18.4992 1.52562 1.41169 
17.3094 2.87899 2.87201 
19.9779 2.73694 2.8113 
19.9895 0.179152 0.0734997 
17.0786 2.83296 0.0328364 
21.4811 1.47706 1.42407 
24.3559 1.53635 1.49357 
23.0307 2.7962 2.87275 
28.5002 2.79476 3.07004 
27.1388 1.40492 1.41519 
25.7177 2.9795 3.22938 
27.1868 3.94238 1.29531 
28.6389 2.68695 0.0124955 
28.5128 0.0478303 0.128936 
1.29592 4.16113 1.46202 
1.31634 7.26563 1.56754 
2.89005 5.74195 2.74583 
4.16164 4.13725 1.14654 
7.07169 4.34072 1.37701 
4.10412 7.35703 1.4113 
6.93717 7.0943 1.32567 
5.44165 5.71248 2.70633 
10.1744 4.2573 1.41124 
10.177 7.20388 1.34034 
8.8698 5.80181 2.79153 
11.4767 5.80579 2.95496 
8.48604 5.75595 0.0756452 
12.861 4.29237 1.45208 
15.6353 4.23005 1.46063 
12.7073 7.10603 1.42806 
15.7136 7.28297 1.41639 
13.1575 7.23846 4.0687 
14.3862 5.60807 2.87295 
14.2546 5.87415 0.00295393 
18.4784 4.45363 1.42905 
18.4968 7.16607 1.39226 
17.1551 5.85999 2.74616 
19.9336 5.6256 3.15933 
17.1944 5.64547 0.0300948 
20.0772 5.58204 0.142393 
21.5771 4.30541 1.57114 
24.5319 4.35616 1.54405 
21.3834 7.12134 1.63439 
22.9921 5.55279 3.03937 
24.3868 7.23789 1.45776 
22.9032 5.91973 0.126977 
28.5315 5.62835 2.91096 
27.3128 7.19333 1.60701 
25.7177 5.73663 2.9335 
28.6913 5.75025 0.0206379 
25.9478 5.80494 0.0643334 
1.36543 10.0199 1.33126 
2.6695 8.6957 2.80637 
2.95989 11.5222 2.96149 
0.105214 11.5814 2.91187 
4.13916 9.89585 1.32784 
6.98009 10.0407 1.47198 
5.62168 8.58725 2.83122 
5.5319 11.5181 2.86547 
9.91476 10.1663 1.3586 
8.5203 8.66943 2.69227 
11.6376 8.6825 2.73579 
8.65926 11.5194 2.79613 
11.534 11.6142 2.83177 
8.52326 8.65976 0.0667831 
12.6555 10.1439 1.23253 
15.7142 10.1259 1.19921 
14.304 8.8857 2.64749 
15.8334 10.0577 4.05441 
14.2679 11.5443 2.73582 
13.9776 11.5975 0.0242223 
18.5869 10.0251 1.38853 
17.1908 8.69426 2.50541 
20.0126 8.59744 2.98789 
17.164 11.6667 2.80794 
19.9139 11.4743 2.83303 
19.958 8.47025 0.123443 
21.4278 9.99352 1.40172 
24.3615 10.0961 1.50457 
23.0418 8.55092 2.87046 
22.6959 11.417 2.89505 
22.8078 11.383 0.0596342 
28.652 8.68639 2.90719 
27.2492 10.2374 1.64079 
25.8419 8.62908 2.93234 
25.7779 11.6094 3.0277 
25.9559 11.3832 0.0435552 
28.5744 11.3982 0.0309365 
25.9412 8.64647 0.250092 
1.52171 12.9325 1.35359 
1.39215 15.7274 1.49471 
0.102541 14.2986 2.93473 
3.101 14.2444 2.65504 
4.22025 12.9469 1.23836 
6.95552 13.0251 1.40435 
4.35099 15.8488 1.27942 
7.0273 15.946 1.30117 
5.72413 14.3865 2.71259 
9.827 12.9198 1.33335 
9.95338 15.9441 1.38872 
8.66665 14.4938 2.78099 
11.4381 14.4361 2.75726 
12.6797 13.0619 1.33685 
15.6208 12.9034 1.32076 
12.8785 15.809 1.39842 
15.7595 15.7589 1.24372 
14.5205 14.5455 2.88014 
19.9101 14.376 0.0290437 
18.5848 12.8534 1.41884 
18.7814 15.8065 1.6184 
17.1357 14.3518 2.69272 
20.1306 14.3805 2.81053 
17.1475 14.2907 0.0473274 
21.3878 12.9382 1.39654 
24.3662 12.8382 1.47451 
21.6323 15.6507 1.30294 
24.4337 15.7529 1.52808 
22.8355 14.3037 2.99676 
23.0158 14.35 0.0380133 
27.2223 12.9448 1.63387 
27.2216 15.7063 1.6177 
25.6641 14.3802 2.9095 
0.090897 17.2228 0.0796681 
2.87645 17.1345 0.0620451 
1.40156 18.666 1.34596 
2.86773 17.2074 2.89949 
2.96803 20.1805 2.86972 
4.26969 18.778 1.35975 
7.0511 18.6403 1.31395 
5.68176 17.2355 2.85916 
5.60779 20.0879 2.81927 
8.58129 20.1255 0.0662796 
10.0155 18.8441 1.40492 
8.56345 17.1717 2.82242 
11.5967 17.3229 2.93363 
8.51937 20.0196 2.85696 
11.4509 20.0988 2.95974 
11.4622 17.2465 0.0219128 
12.9537 18.834 1.46749 
15.8151 18.668 1.38479 
14.4542 17.2963 2.83386 
14.1529 20.2044 2.92104 
14.4208 19.9523 0.0464725 
14.2253 17.4026 0.152696 
20.0008 20.0559 0.108691 
18.6897 18.7173 1.41847 
17.2416 17.3288 2.80598 
20.1931 17.3156 3.02574 
17.3108 19.9675 2.6966 
20.0119 20.0849 2.90321 
17.1926 19.9449 0.0743608 
20.24 17.2362 0.214595 
21.6401 18.6622 1.46023 
24.4032 18.5642 1.59286 
23.0523 17.2044 3.05573 
22.9764 20.0576 3.02757 
23.1077 17.3252 0.0517416 
28.6902 17.4034 2.88724 
28.6128 19.9891 2.82633 
27.1335 18.4342 1.24579 
25.8927 17.128 3.00185 
25.8417 20.1378 2.81795 
25.8426 19.9427 0.0775178 
25.802 17.0307 0.233891 
1.41723 21.5506 1.49351 
1.20737 24.4615 1.34771 
2.8283 23.0046 0.0653354 
2.97008 23.0449 2.80993 
4.31012 21.4922 1.11767 
7.11179 21.5666 1.36795 
4.34364 24.4655 1.3622 
7.18603 24.2893 1.34306 
5.68495 22.9165 2.76601 
10.0695 21.5595 1.39821 
10.1373 24.4098 1.56538 
8.61182 22.9061 2.93475 
11.502 22.9572 3.00149 
11.4039 22.9514 0.0953963 
13.0134 21.5671 1.36939 
15.9387 21.536 1.46975 
12.8769 24.2221 1.36606 
15.8189 24.3731 1.38465 
14.4167 23.03 2.82571 
18.8554 21.5176 1.46813 
17.263 22.9509 0.008371 
18.655 24.35 1.21744 
20.1694 22.891 0.074999 
17.3136 22.8784 2.83133 
20.0305 23.0242 2.96507 
21.4654 21.441 1.61376 
24.3271 21.3671 1.4634 
21.6159 24.3866 1.45993 
24.1841 24.2473 1.54681 
22.9159 22.9815 2.86509 
22.6916 22.6934 0.0479037 
28.6921 22.9505 2.67432 
27.36 21.3975 1.32093 
27.0394 24.2288 1.40089 
25.6803 22.8705 3.01757 
25.5315 22.6967 0.181622 
2.90454 28.4721 2.91314 
1.2104 27.3795 1.38452 
2.92526 25.8426 2.72262 
2.90116 28.6463 0.183482 
2.81112 25.817 0.0226541 
4.35932 27.1828 1.40713 
7.31959 27.2487 1.463 
4.49426 27.2704 4.0265 
5.91295 25.8619 2.83362 
5.8334 25.8377 0.00458102 
10.2164 27.2726 1.46599 
8.63724 25.8526 2.93006 
11.6157 25.8554 3.03039 
8.61365 25.9488 0.0834944 
11.6124 28.6415 0.049804 
14.4451 28.6094 2.89208 
13.0825 27.1858 1.46775 
15.9536 27.1371 1.52046 
14.2316 25.8206 2.89414 
14.2631 25.8129 0.00665354 
17.3238 28.5978 2.8471 
20.0377 28.6008 2.74129 
18.5729 27.3392 1.36843 
17.4783 25.9093 2.80331 
20.1819 25.7385 2.94862 
22.8092 28.6574 2.87233 
21.2918 27.0897 1.40282 
24.1315 27.1571 1.55769 
23.0013 25.8365 2.8773 
25.7484 28.4104 0.171168 
28.5331 28.6943 2.92357 
28.6839 25.8245 2.72963 
25.5758 28.7025 2.89626 
25.5648 25.6263 0.101231 
27.0477 27.1854 1.53465 
25.7255 25.7863 2.68247 
28.3926 25.8264 0.0907238 
1.47361 1.35375 4.29465 
1.44592 1.27147 7.2054 
2.80081 2.78972 5.71823 
4.23135 1.29556 4.30609 
7.18896 1.56069 4.14097 
4.28632 1.36382 7.31438 
7.02722 1.55871 7.04141 
5.67114 2.80715 5.53987 
9.94114 1.41042 4.21347 
9.90609 4.04924 4.30764 
10.0483 1.36934 7.23586 
8.69337 2.72267 5.67049 
11.4939 2.68891 5.83366 
11.2238 0.0601508 6.01743 
12.8693 1.3528 4.38376 
15.7706 1.32957 4.34422 
13.079 1.27297 7.27264 
15.8088 1.54762 7.22544 
14.2452 2.88047 5.80126 
18.6606 1.49858 4.21967 
18.5987 1.46449 7.35042 
17.099 2.74203 5.6617 
20.1477 2.91259 5.73895 
20.0329 0.0799509 5.78457 
21.4184 1.3349 4.246 
24.3765 1.43485 4.33028 
21.5062 1.62892 7.24608 
24.5153 1.58255 7.17591 
22.8786 2.81634 5.60937 
22.8206 0.147357 5.81174 
27.1005 1.32004 4.20312 
28.6104 3.06881 5.80336 
27.5755 1.17967 7.10229 
25.8756 3.01386 5.85509 
25.7906 0.0119926 5.95552 
1.3484 4.26022 4.3389 
1.4149 7.02502 4.40046 
3.96181 4.17821 4.43318 
1.4107 4.2496 7.22009 
1.41895 7.22864 7.09028 
2.86295 5.63117 5.80333 
7.05678 4.44367 4.17648 
4.11735 6.92814 4.26256 
7.0401 7.12734 4.16538 
4.37737 4.17963 7.04283 
7.17173 4.30779 7.0125 
4.31903 7.15116 7.00477 
5.75734 5.68178 5.68971 
7.19384 7.03012 7.15027 
10.2009 7.31304 4.33242 
9.96391 4.176 7.24726 
8.73481 5.75009 5.51736 
10.0013 7.19206 7.27836 
11.6065 5.66817 5.70675 
12.8649 4.46057 4.21626 
15.6294 4.29471 4.34364 
15.8774 7.2942 4.14577 
12.9032 4.27027 7.10437 
15.7643 4.37566 7.04835 
13.1767 7.21678 6.99989 
14.4431 5.7412 5.67803 
15.7962 7.21833 7.15384 
18.4612 4.26646 4.28074 
18.4691 7.21768 4.25361 
18.4762 4.41643 7.03238 
17.1148 5.83354 5.55452 
18.6051 7.40749 7.2468 
19.981 5.75724 5.80307 
21.4037 4.37481 4.34018 
24.3904 4.34323 4.37939 
21.4976 7.23068 4.41437 
24.318 7.06149 4.46903 
21.5708 4.46484 7.23147 
21.7073 7.2348 7.18971 
23.0176 5.65872 5.85252 
24.4079 4.30742 7.156 
24.4772 7.47605 7.23623 
27.2626 4.39543 4.39753 
27.1073 7.10795 4.37196 
28.7087 5.88498 5.95602 
27.3615 4.36331 7.32655 
25.8959 5.80214 5.89195 
27.3466 7.29943 7.31495 
1.32263 10.1199 4.36978 
0.0116873 8.81096 5.70578 
1.58716 10.0418 7.11768 
2.93781 8.51875 5.59795 
0.0585065 11.6074 5.84815 
2.9356 11.6531 5.70637 
4.354 9.94947 4.29723 
6.99367 10.124 4.12064 
4.47181 10.2223 7.19649 
5.82315 8.56559 5.67621 
7.2631 9.96506 6.8928 
5.83836 11.3031 5.57712 
10.2173 9.97457 4.2378 
8.67829 8.38973 5.58199 
10.0544 9.99662 7.21253 
11.6944 8.61191 5.86482 
8.58615 11.3152 5.67103 
11.524 11.5175 5.8705 
12.9107 10.0869 4.1756 
13.0922 10.144 7.24127 
14.5012 8.7009 5.58901 
15.5537 10.1182 7.14196 
14.3254 11.4517 5.66636 
18.6867 10.0914 4.30547 
17.151 8.78192 5.66364 
18.6555 10.2169 7.11423 
20.1145 8.53721 5.71503 
17.2118 11.5439 5.58941 
20.0411 11.4614 5.65812 
21.4844 9.98322 4.26156 
24.3844 10.1476 4.29967 
21.3309 10.1322 7.15571 
22.9559 8.67194 5.83218 
24.3437 10.0677 7.1993 
22.8736 11.433 5.81225 
27.3647 10.3522 4.31688 
25.9433 8.7049 5.55309 
27.3896 10.2294 7.14645 
25.8406 11.6785 5.64217 
1.47047 13.1658 4.3165 
1.5016 15.9445 4.19633 
1.59773 12.934 7.26987 
1.54372 15.521 7.13331 
2.99029 14.3453 5.7753 
0.118261 14.5209 5.62219 
4.43147 12.9318 4.38549 
7.16077 12.8856 4.39544 
4.50387 15.7462 4.41429 
7.23181 15.8495 4.26504 
4.48658 12.7577 7.04828 
7.32595 12.8734 7.10102 
4.46329 15.7329 7.20693 
5.8401 14.2937 5.80363 
7.2938 15.6837 7.20768 
10.108 12.9727 4.25898 
10.0705 15.8335 4.36897 
10.0998 13.091 7.09797 
8.65566 14.3361 5.55886 
10.0452 15.875 7.24894 
11.4758 14.3951 5.729 
13.0192 13.2109 4.40805 
15.5947 13.1097 4.32324 
13.0903 15.8922 4.32904 
16.0136 15.6807 4.26097 
12.9976 13.0467 7.21373 
15.7485 12.7897 7.21407 
13.0924 15.8521 7.13025 
14.4027 14.4014 5.71959 
15.8305 15.7296 7.15317 
18.6581 13.0306 4.15649 
18.8459 15.7699 4.35803 
18.748 12.9556 7.13349 
17.2246 14.4 5.57849 
18.7252 15.8767 7.12185 
19.973 14.4091 5.68036 
21.4775 12.7634 4.41023 
24.2835 13.0143 4.43695 
21.5941 15.8688 4.44044 
24.319 15.7865 4.50183 
21.412 12.9992 7.22583 
24.3529 12.9806 7.23162 
21.2992 15.8022 7.29901 
22.7393 14.2536 5.86244 
24.2559 15.8182 7.10515 
27.2917 12.9339 4.40585 
27.3588 15.7175 4.28552 
27.2376 12.9363 7.19418 
25.7247 14.3636 5.81274 
27.1554 15.6784 7.28895 
1.53414 18.792 4.22253 
1.48775 18.5177 7.07341 
2.77733 17.2101 5.71056 
2.8298 20.0408 5.68083 
4.27733 18.8213 4.32885 
7.12966 18.6572 4.31558 
4.27278 18.5306 7.15218 
5.85363 17.3623 5.76034 
7.20787 18.7377 7.2998 
5.71235 19.9713 5.82328 
9.97052 18.7661 4.45471 
8.71401 17.1417 5.75281 
10.0109 18.5077 6.97991 
11.6353 17.1995 5.76263 
8.62771 20.1264 5.63692 
11.55 20.1196 5.71851 
12.812 18.6704 4.35451 
15.8556 18.5802 4.23888 
13.0113 18.6283 7.13354 
14.5868 17.4154 5.65735 
15.9298 18.7249 7.08215 
14.3083 20.185 5.62804 
18.5573 18.6421 4.42048 
17.159 17.0561 5.82927 
18.5908 18.7643 7.35906 
20.1344 17.4435 6.03124 
17.1751 20.0716 5.8121 
19.9656 20.1672 5.93406 
21.3984 18.809 4.52188 
24.3997 18.5076 4.32554 
21.7008 18.6806 7.36862 
22.8311 17.2921 5.81678 
24.5998 18.6858 7.22119 
23.2015 20.1321 5.67958 
27.4007 18.5449 4.37582 
28.7106 17.06 5.73071 
28.6584 20.1281 5.71365 
26.0599 17.1926 5.80046 
27.4489 18.6869 7.17556 
25.7383 19.9693 5.61806 
1.60782 21.5644 4.26335 
1.45738 21.5455 7.1333 
0.116111 23.0091 5.72448 
1.19919 24.4925 7.00125 
2.96655 23.3127 5.59954 
4.47219 21.612 4.2208 
7.2449 21.4481 4.39957 
7.01577 24.3181 4.30862 
4.21677 21.4887 7.16497 
6.81499 21.3897 6.996 
4.28354 24.5053 7.14289 
5.49139 22.8714 5.70258 
7.05155 24.2683 7.09664 
10.082 21.4979 4.39425 
10.0537 24.4194 4.35231 
9.94652 21.5893 7.0875 
8.45675 22.8805 5.58648 
10.1061 24.1199 7.0222 
11.6551 22.9367 5.68583 
12.9555 21.6743 4.27744 
15.8852 21.4488 4.25219 
12.9498 24.4665 4.39035 
15.8227 24.4689 4.13006 
12.9184 21.5319 7.1444 
15.8344 21.4954 7.22163 
12.9871 24.4174 7.34139 
14.5096 23.0885 5.89586 
15.9087 24.5356 7.26595 
18.6674 21.5914 4.437 
18.69 24.3426 4.30775 
18.6381 21.4818 7.1897 
17.1595 23.0731 5.78041 
18.7713 24.4849 7.28672 
20.1307 23.0082 5.80923 
21.5888 21.4224 4.49851 
24.4196 21.4956 4.21247 
21.5044 24.4686 4.2589 
24.5367 24.3367 4.15586 
21.6378 21.3965 7.05759 
24.5962 21.7263 7.18719 
21.6359 24.4418 7.16607 
23.0502 23.057 5.76073 
24.5002 24.3487 7.03842 
27.1558 21.3524 4.32757 
27.2873 24.3813 4.20267 
27.2542 21.3834 7.12 
25.8692 22.8233 5.69728 
27.2512 24.3846 7.07898 
1.39821 24.6441 4.26842 
1.29648 27.4014 4.16912 
3.01931 28.584 5.65902 
1.46479 27.2411 7.25627 
2.81811 25.9627 5.82219 
4.26172 24.711 4.20996 
7.2357 27.0079 4.28797 
5.71438 28.5879 5.68518 
4.21117 27.19 7.26285 
5.67133 26.0718 5.74633 
7.17018 27.1494 7.1825 
10.1075 27.1997 4.32932 
8.53373 28.6447 5.80478 
8.6756 25.8749 5.68736 
9.97837 27.1715 7.31286 
11.5349 25.8699 6.00029 
12.8382 27.4043 4.35258 
15.8524 27.4192 4.37189 
14.3868 28.673 5.87854 
13.0389 27.3029 7.1854 
14.4346 26.1723 5.67608 
15.836 27.4734 7.32347 
18.6173 27.2647 4.48431 
17.2733 28.6643 5.7235 
17.1643 25.7815 5.64407 
18.6384 27.1916 7.05356 
20.0406 25.9127 5.77927 
21.5315 27.2137 4.67595 
24.2636 27.3592 4.29229 
21.5704 27.2606 7.24625 
23.112 25.7727 5.93734 
24.5163 27.5121 7.31022 
26.9569 27.1513 4.2106 
28.6573 28.5008 5.58519 
28.4899 25.9277 5.62732 
25.7221 25.9695 5.79347 
27.2788 27.2579 7.28357 
0.132797 2.92097 8.49103 
3.03914 2.962 8.70573 
2.94545 0.108498 8.58355 
1.43998 1.34879 9.98663 
0.180221 2.92347 11.4418 
3.05473 2.86196 11.3447 
5.90863 2.74053 8.73027 
4.30871 1.47714 10.0697 
7.07995 1.47152 10.1321 
5.87197 2.90827 11.3988 
8.60074 2.83428 8.49308 
11.5494 2.76607 8.60045 
8.44533 0.249883 8.70763 
11.6303 0.126533 8.63586 
11.5332 0.02128 11.3503 
8.4855 0.118667 11.5433 
10.0797 1.48647 10.2203 
8.47027 2.78553 11.4524 
11.534 2.85046 11.5096 
14.5221 2.78319 8.49885 
14.3869 0.00172313 11.4183 
13.054 1.41308 10.1758 
15.9104 1.32104 9.92263 
14.4221 2.83869 11.4125 
17.2552 3.00291 8.54729 
20.2127 2.85522 8.66975 
17.4308 0.0299529 11.2666 
20.1319 0.0778638 11.535 
18.9939 1.42627 9.9394 
17.4854 2.96396 11.2887 
20.3177 2.80107 11.4722 
22.9931 2.98914 8.49141 
21.7383 1.44284 10.2844 
24.4456 1.61945 10.1352 
23.1262 3.04655 11.512 
26.1118 2.85703 8.53804 
25.8113 0.162789 8.78754 
27.1937 1.5546 9.99695 
25.9766 0.241152 11.5683 
25.8932 3.04987 11.4914 
3.05051 5.65288 8.64397 
0.139284 5.60496 8.74673 
1.56808 4.2599 10.0946 
1.56029 7.24854 10.0164 
0.156795 5.78297 11.519 
2.9818 5.74278 11.5153 
5.74812 5.5144 8.56769 
4.40687 4.30905 10.1742 
7.39471 4.3806 9.99054 
4.40471 7.21499 9.95164 
7.3109 7.07812 10.0672 
5.55518 5.80871 11.4133 
8.70143 5.86242 8.65728 
11.3862 5.84843 8.48864 
10.0005 4.19199 10.0435 
10.0986 7.17423 9.96336 
8.72323 5.59373 11.6829 
11.6016 5.72292 11.4898 
14.3858 5.7247 8.63315 
12.9405 4.1268 9.82892 
15.7925 4.32007 10.0739 
13.0828 7.20254 9.90722 
15.7302 7.03864 10.0379 
14.1953 5.5169 11.6249 
17.2386 5.83948 8.53228 
20.1287 5.67701 8.41877 
18.6019 4.66441 9.9898 
18.6797 7.27989 9.79884 
17.4355 5.82351 11.5532 
20.1634 5.63171 11.281 
23.124 5.81307 8.68876 
21.7255 4.34893 10.2193 
24.5518 4.50096 9.90031 
21.5416 7.13373 9.98242 
23.0495 5.96017 11.5103 
24.4378 7.34209 9.84422 
25.7917 5.86047 8.63608 
27.3219 4.32171 10.1269 
27.5104 7.11341 9.88621 
26.0629 5.86438 11.3558 
0.214542 8.61868 8.62305 
3.06686 8.58928 8.52206 
0.189922 11.4213 8.68448 
2.94924 11.4948 8.65793 
1.65498 10.1884 10.1292 
0.154055 8.65284 11.505 
2.93405 8.63912 11.4964 
0.173962 11.6946 11.5048 
2.9961 11.7429 11.4654 
5.96549 8.65868 8.46318 
6.03159 11.2226 8.58843 
4.36862 10.234 10.0314 
7.3749 9.89961 9.90868 
5.80627 8.63435 11.439 
5.9125 11.5287 11.4413 
8.52415 8.6223 8.37575 
11.6958 8.51553 8.53157 
8.79436 11.6111 8.65108 
11.5375 11.4603 8.3848 
10.1394 9.95244 9.99663 
8.86794 8.46219 11.5233 
11.6617 8.68544 11.4782 
8.83142 11.4981 11.5106 
11.5249 11.4248 11.3218 
14.593 8.75578 8.65678 
14.3472 11.5847 8.71521 
12.9825 10.0574 10.0239 
15.827 9.93985 10.2327 
14.2945 8.45998 11.5155 
14.4613 11.3731 11.6175 
17.1402 8.73178 8.62603 
20.3216 8.5932 8.53782 
17.1142 11.3829 8.58182 
20.1195 11.5271 8.81566 
18.6446 10.0373 10.1597 
17.239 8.55084 11.4417 
20.1718 8.47656 11.5019 
17.4603 11.5845 11.5908 
20.268 11.2952 11.4206 
23.0148 8.73059 8.75393 
22.8918 11.4478 8.62006 
21.5916 9.96903 10.1367 
22.8997 8.48218 11.4671 
23.02 11.4021 11.3864 
24.5776 10.0906 10.0596 
26.0608 8.69914 8.66572 
25.8446 11.4156 8.56448 
27.3682 10.0872 10.0235 
25.9841 8.69413 11.4087 
25.832 11.4691 11.3121 
0.0210139 14.3634 8.51403 
2.96572 14.3295 8.75741 
1.49461 12.9529 10.0789 
1.64481 15.6777 10.1615 
2.95535 14.4074 11.717 
5.86873 14.3243 8.40531 
4.51292 13.0601 9.70478 
7.25092 12.8644 10.0136 
4.44217 15.8522 10.0957 
7.03291 15.8136 10.1479 
5.76744 14.3659 11.2867 
8.77516 14.4488 8.60238 
11.5228 14.4836 8.41437 
10.24 13.0251 9.88338 
10.1326 15.77 10.0201 
8.63429 14.267 11.2798 
11.5948 14.3524 11.3185 
14.4226 14.5026 8.59083 
12.8307 12.8516 10.0801 
15.8225 12.8529 10.1007 
12.9974 15.6977 10.0026 
15.9777 15.874 9.96162 
14.3882 14.2777 11.5538 
17.2141 14.3136 8.58745 
20.1398 14.3492 8.69926 
18.6291 12.8991 9.98775 
18.6743 15.788 10.1328 
17.0135 14.4208 11.3318 
20.0261 14.2871 11.4918 
22.9294 14.4637 8.61245 
21.5322 13.1181 10.0663 
21.4373 15.87 10.0449 
24.4516 15.7965 10.1815 
23.1375 14.3412 11.4906 
24.2437 12.8817 9.85624 
25.7555 14.273 8.63233 
28.6924 14.3952 11.3417 
27.257 12.9421 10.0278 
27.429 15.9341 10.0558 
25.9609 14.2825 11.4205 
2.8094 16.9194 8.56231 
3.00307 20.0581 8.67512 
0.281319 17.204 8.3813 
0.0710075 20.2051 8.55275 
1.3617 18.7607 9.87323 
0.166219 17.2323 11.4103 
2.81912 17.2692 11.4005 
2.77157 20.1622 11.5 
5.85938 17.1854 8.54747 
5.6396 20.2105 8.69427 
4.32302 18.6577 9.92137 
7.18845 18.6251 9.94074 
5.8554 17.2649 11.573 
5.73709 20.1044 11.5155 
8.65024 17.205 8.70369 
11.6688 17.2659 8.53628 
8.51369 20.1247 8.55406 
11.5287 19.9576 8.5132 
10.1533 18.8271 10.0263 
8.59176 17.2516 11.3743 
11.507 17.3257 11.5468 
8.531 20.0279 11.3948 
11.4665 20.1296 11.4916 
14.3903 17.3375 8.58462 
14.3391 20.1511 8.57897 
12.9516 18.8594 10.0516 
15.802 18.7357 9.96509 
14.3811 17.1847 11.473 
14.6268 20.0613 11.4268 
17.3067 17.4046 8.60599 
20.1954 17.3901 8.72848 
17.1176 19.9687 8.59674 
20.2239 20.2158 8.60063 
18.76 18.7018 10.0428 
17.1592 17.0898 11.4449 
20.1861 17.3358 11.495 
17.305 19.9687 11.5197 
20.3057 20.063 11.5653 
22.889 17.1565 8.76892 
23.0978 20.1156 8.62346 
21.621 18.634 10.0086 
24.4474 18.6128 9.95945 
23.0369 17.215 11.3698 
23.1291 20.0372 11.6187 
25.9548 17.2242 8.66465 
25.8869 20.0191 8.59079 
28.6085 20.0757 11.508 
27.3469 18.6605 9.92528 
25.9753 17.1448 11.4945 
25.6813 20.1397 11.4807 
2.8518 23.0132 8.48057 
1.28876 21.5778 9.9772 
1.35669 24.3131 9.98649 
2.90062 22.8324 11.7548 
5.62986 22.9509 8.73838 
4.26495 21.5698 10.142 
7.1955 21.5853 10.0381 
4.22782 24.4128 9.97199 
7.16771 24.3237 10.0718 
5.54254 23.0239 11.5677 
8.4976 22.9607 8.58312 
11.6136 22.839 8.76457 
10.0027 24.4406 9.98329 
10.0967 21.4405 9.85509 
8.56797 22.8566 11.4818 
11.4944 22.8123 11.6302 
14.3461 22.9026 8.65809 
13.0632 21.5569 10.0978 
15.8174 21.4811 10.1971 
12.883 24.4726 10.2196 
15.8152 24.3788 10.0172 
14.5197 22.9646 11.5256 
17.3021 22.8834 8.45859 
20.234 22.7533 8.60071 
20.1465 22.9786 11.4754 
17.328 22.9364 11.6671 
18.7866 21.3789 9.99903 
18.7282 24.582 9.89799 
23.0675 23.1778 8.46473 
21.6023 21.5899 10.0783 
23.0068 22.9387 11.4748 
24.5054 24.4722 10.131 
21.7547 24.307 10.0186 
24.3899 21.6651 10.0973 
28.5957 22.9469 8.56634 
25.9224 23.0648 8.64122 
27.1443 21.4344 9.94365 
27.2691 24.5758 10.0173 
26.1173 23.0974 11.4213 
28.6741 22.9438 11.5975 
0.155158 28.5908 8.72484 
2.78877 25.8503 8.62541 
2.95712 28.6119 11.6708 
0.13934 28.6526 11.501 
1.498 27.1537 10.0497 
0.0755466 25.6487 11.4284 
2.85972 25.7661 11.2801 
5.94071 28.6892 8.63132 
5.70197 25.7912 8.58823 
5.65395 28.5923 11.5213 
4.42865 27.3773 9.98912 
7.3255 27.4352 9.92072 
5.79934 25.7606 11.3714 
8.60376 25.7244 8.37295 
11.5002 25.6258 8.50247 
9.98088 27.4359 9.80308 
8.55293 25.8854 11.3825 
11.209 25.9729 11.4191 
14.2997 28.6087 8.81873 
14.4377 25.788 8.61505 
12.9425 27.1512 10.1713 
15.8765 27.3371 10.0954 
14.5462 25.8072 11.4745 
20.3096 28.6681 8.69601 
17.5146 28.6083 8.75615 
17.2275 25.8943 8.61079 
20.3395 26.0578 8.62326 
20.2022 25.7637 11.4648 
18.929 27.0889 10.0865 
17.2425 25.9311 11.4251 
23.0873 28.6951 8.65299 
23.0948 26.058 8.60312 
23.1007 26 11.6183 
24.572 27.3992 10.0587 
21.6895 27.4401 10.2959 
23.0927 28.6764 11.52 
28.5804 25.788 8.57758 
25.7305 25.7949 8.61601 
25.8841 25.8611 11.6439 
27.3915 27.2972 10.0837 
1.47518 1.51102 12.9551 
0.237731 2.87793 14.2565 
1.60866 1.3343 15.9366 
2.87176 0.00378025 14.3869 
3.05754 2.82421 14.4673 
0.0594253 0.0556346 14.4397 
4.52174 1.51623 12.9456 
7.07011 1.42846 12.9981 
5.84886 2.90355 14.3008 
4.3693 1.49692 15.7606 
7.03706 1.44167 15.7392 
10.0422 1.47202 12.8999 
9.99244 4.09182 12.93 
10.1553 1.55294 15.7268 
11.5276 2.80499 14.4235 
11.555 0.0340185 14.387 
8.56991 0.0754642 14.4091 
8.51049 2.73227 14.4205 
12.9112 1.5001 12.9101 
15.9058 1.52181 12.7926 
13.0675 1.49145 15.8115 
15.9239 1.51349 15.6715 
14.5047 2.85214 14.3717 
14.5192 0.119868 14.3825 
18.6947 1.5172 12.7812 
20.0501 2.91112 14.2052 
17.3809 0.0988773 14.0877 
20.0422 0.17459 14.1532 
17.2655 2.91296 14.2031 
18.6108 1.53437 15.844 
21.58 1.45291 12.9 
24.5198 1.53558 13.0273 
21.5146 1.61055 15.7862 
24.5992 1.38051 15.8707 
22.9609 3.00291 14.4644 
23.1553 0.261496 14.4187 
27.3945 1.44266 12.9177 
27.4979 1.5445 15.9169 
26.0055 2.92062 14.5143 
1.56589 4.50542 12.8527 
1.48314 7.20179 12.9947 
1.53259 4.27549 15.9912 
1.51331 7.25875 15.9167 
3.02917 5.8028 14.4844 
0.115592 5.88278 14.4647 
4.37668 4.43318 12.7644 
7.04671 4.40863 12.7835 
4.23177 7.19659 12.9104 
7.23239 7.10051 12.7228 
5.76686 5.8212 14.1164 
4.36542 4.31921 15.7394 
7.03901 4.44066 15.6349 
4.44678 7.30728 15.5204 
7.11485 7.01185 15.5917 
10.0787 7.17355 13.1326 
11.4557 5.6504 14.2834 
8.71209 5.4477 14.2751 
9.99904 4.17392 15.8533 
10.1953 7.20602 15.8322 
13.0486 4.19024 13.0052 
15.8875 4.26046 12.8923 
13.1485 7.09271 12.9721 
15.6261 6.9754 12.853 
12.871 4.26162 15.72 
15.9917 4.3274 15.7841 
12.9139 7.00678 15.7786 
15.8166 7.1748 16.0046 
14.4836 5.58829 14.5147 
18.7356 4.44966 12.8957 
18.7846 7.14904 12.713 
20.0428 6.00979 14.3085 
18.7346 4.27655 15.5909 
18.6772 7.14168 15.9806 
17.2735 5.88652 14.3698 
21.5163 4.31896 13.0264 
24.4881 4.44865 12.8338 
21.5497 7.19537 12.8992 
23.1486 5.62311 14.3543 
21.7255 4.3833 15.8682 
24.5086 4.26223 15.9412 
21.7949 7.15433 15.826 
24.611 7.16425 12.7999 
27.5139 4.27393 12.9676 
27.3899 7.27927 12.9151 
25.885 5.67144 14.3391 
24.6402 7.02039 15.7685 
27.3775 4.3277 15.9389 
27.3594 7.24337 15.7301 
1.71354 10.1797 12.9894 
2.88984 8.66333 14.2919 
1.35445 9.9397 15.7482 
0.0980378 8.59755 14.3794 
0.252271 11.5217 14.4498 
3.01813 11.6426 14.3734 
4.4006 10.3199 12.9347 
7.26162 10.0217 12.9637 
5.7049 8.71272 14.1801 
4.28774 10.0521 15.6897 
7.18956 10.3253 15.9217 
5.87906 11.6752 14.3917 
10.1029 9.86614 12.8721 
11.3367 11.2852 14.2987 
8.67912 11.2953 14.3363 
9.91636 9.90714 15.6772 
8.34516 8.36602 14.4889 
11.6382 8.56528 14.4649 
12.9774 9.9286 12.8109 
15.7277 10.0884 12.98 
14.2118 11.3768 14.2315 
12.9674 10.0547 15.8969 
15.8494 10.1309 15.7841 
14.3429 8.56723 14.5254 
18.5546 9.93649 12.8959 
17.3396 11.2501 14.3463 
20.0752 11.4336 14.3188 
18.7436 10.1497 15.7867 
17.0595 8.47418 14.4768 
19.9014 8.62762 14.5718 
21.4206 9.77936 13.022 
24.4541 10.054 12.9177 
23.1814 8.41262 14.2259 
23.0632 11.322 14.1715 
21.5735 9.86292 15.766 
24.257 10.1293 15.7539 
27.4448 10.068 12.9996 
25.9507 8.65591 14.3087 
25.8951 11.5326 14.3337 
27.3174 10.125 15.5974 
1.53939 12.9945 12.9322 
1.37366 15.9071 12.9165 
1.45518 13.0121 15.9922 
1.62347 16.0743 15.685 
2.84815 14.5396 14.4027 
4.37472 12.9808 12.7518 
7.20019 12.9605 12.9709 
4.56498 15.9162 12.9495 
7.41685 15.7006 13.0348 
5.93025 14.3587 14.3131 
4.28005 13.0509 15.6206 
7.35128 12.8256 15.8308 
4.29858 15.9124 15.7436 
7.17983 15.6942 15.8707 
11.5202 14.376 14.248 
10.0528 12.8054 12.9019 
9.9054 15.7563 12.9673 
8.86064 14.1765 14.259 
10.0722 12.7467 15.6332 
9.98312 15.761 15.7467 
14.216 14.2287 14.2805 
12.7586 12.9067 12.8425 
15.9284 12.9756 12.9247 
12.9161 15.817 12.8561 
15.6693 15.831 13.0149 
12.9339 12.915 15.7472 
15.728 12.8149 15.7628 
13.0284 15.8736 15.7811 
15.5606 15.6568 15.5802 
18.8178 12.7851 12.9808 
18.6469 15.7328 12.7005 
17.2877 14.3368 14.3416 
20.2498 14.0947 14.1063 
18.6106 12.7562 15.55 
18.9866 15.586 15.4443 
21.6519 12.8265 12.7009 
24.4223 12.856 12.7357 
21.4953 15.7641 12.7454 
24.532 15.7769 12.9194 
23.1588 14.4177 14.2483 
21.5849 12.7661 15.7105 
24.3719 12.9603 15.7284 
21.4594 15.6995 15.6092 
24.4231 15.7293 15.7122 
27.4644 12.7682 12.926 
27.5205 15.7335 13.0046 
28.6967 14.2712 14.3555 
25.8073 14.2814 14.169 
27.2682 12.8402 15.8873 
27.2243 15.6775 15.8379 
1.30772 18.7174 12.8462 
2.84061 17.3517 14.2885 
1.4639 18.7083 15.9519 
0.0198057 20.1203 14.6019 
2.81883 20.0021 14.4683 
0.0549621 17.1443 14.3957 
4.2867 18.7532 13.1547 
7.2369 18.8147 12.8064 
5.86983 17.3345 14.2985 
4.45557 18.6346 15.964 
7.14717 18.5838 15.8652 
5.68694 20.0939 14.4791 
10.0877 18.9323 12.8823 
8.55197 17.1289 14.3059 
8.54928 20.233 14.3052 
9.82829 18.5988 15.536 
11.3778 20.0189 14.5114 
11.3493 17.139 14.3947 
14.2506 17.2955 14.3417 
12.8682 18.675 12.8631 
15.907 18.7038 12.8887 
12.9594 18.5685 15.8356 
15.9001 18.5083 15.9381 
14.4281 19.9169 14.5073 
17.2738 17.0681 14.311 
18.5214 18.5084 12.8911 
19.9583 17.2842 14.2683 
17.1072 20.1975 14.3924 
19.9872 20.1154 14.4104 
18.5246 18.7873 15.8032 
21.4826 18.6512 13.0093 
24.4605 18.5808 12.9611 
23.0144 17.0318 14.203 
21.312 18.5463 15.7115 
24.0048 18.5337 15.7338 
22.9009 20.1411 14.4217 
27.2467 18.5037 12.7931 
25.9392 17.1948 14.4352 
27.096 18.6137 15.8318 
25.5947 20.1713 14.668 
1.35162 21.4317 12.9507 
1.34111 24.3612 12.9949 
1.60762 21.4586 16.0089 
1.74063 24.3871 15.8039 
0.229354 22.8468 14.527 
2.74014 22.878 14.3986 
4.36936 21.6072 13.2003 
7.18728 21.664 12.8747 
4.20557 24.5263 12.9378 
7.12892 24.5057 12.6698 
5.83599 23.0298 14.3296 
4.47762 21.542 15.8444 
6.99688 21.3588 15.9703 
4.37247 24.4201 15.7004 
7.20354 24.0924 15.8873 
11.3451 23.2099 14.1955 
10.0181 21.563 12.8463 
9.90133 24.5725 12.8769 
8.56998 22.9689 14.337 
10.0683 21.5984 15.7826 
9.97209 24.4443 15.7696 
14.1422 23.0802 14.3475 
13.0808 21.459 13.036 
15.7921 21.6691 13.0643 
12.8107 24.5739 12.805 
15.8458 24.5739 12.9218 
12.9119 21.6246 15.7639 
15.806 21.6197 15.9145 
15.8377 24.573 15.7072 
17.2445 23.0359 14.2707 
18.7712 24.4058 12.8893 
18.5914 21.5085 12.8484 
18.5855 21.4898 15.7878 
18.5657 24.5391 15.7599 
20.0796 22.9579 14.4065 
24.4617 24.4497 12.9356 
21.6601 24.462 13.0094 
24.4176 21.7353 12.8839 
21.4722 21.599 12.8898 
21.4548 21.665 15.9726 
23.9991 21.6197 16.122 
21.4402 24.5275 15.8185 
24.4575 24.5967 15.965 
22.9674 23.1672 14.4293 
27.2135 21.3699 13.0953 
27.263 24.493 13.1276 
27.2141 21.6584 15.9896 
27.1817 24.3965 15.8548 
25.7947 23.0324 14.3827 
2.81032 25.7321 14.264 
1.45214 27.131 13.1102 
0.00395192 25.9064 14.4889 
1.26792 27.3029 15.9403 
4.27224 27.2118 12.8621 
6.98047 27.3501 12.9223 
5.84359 25.7229 14.3962 
4.1206 27.309 15.7789 
7.22296 27.3266 15.6958 
5.75591 28.7106 14.5881 
8.41954 25.9115 14.3326 
10.0293 27.5535 12.8405 
11.3662 26.048 14.1971 
10.0459 27.3441 15.6688 
13.0747 27.2951 12.7995 
15.8913 27.4263 12.7628 
14.342 25.9433 14.3512 
12.8569 24.617 15.8856 
13.0302 27.3913 15.7728 
15.8215 27.3959 15.6155 
18.8231 27.2304 12.7863 
20.3644 26.1266 14.2856 
18.6556 27.4275 15.7449 
17.2278 25.8453 14.4281 
24.5477 27.3375 12.9304 
21.5879 27.2599 12.9282 
21.5377 27.4424 15.8522 
24.3803 27.3313 15.995 
23.0891 25.968 14.4628 
27.4198 27.1748 12.8261 
25.9973 28.5501 14.2878 
27.3413 27.4065 15.9378 
25.6635 25.8536 14.5428 
1.47787 1.55506 18.9168 
2.95201 2.96321 17.458 
0.17491 3.08165 17.3748 
0.0818148 0.0115871 17.3375 
2.93795 2.89443 20.2808 
0.0718658 3.00418 20.2524 
4.41641 1.62641 18.836 
5.78432 0.00675113 17.3605 
7.09246 1.40414 18.6124 
5.74703 2.83594 17.2747 
5.74204 2.89291 20.1995 
9.94728 1.35723 18.6444 
8.41164 2.66274 16.9233 
11.6266 2.84372 17.3269 
8.71105 2.83205 20.053 
11.3327 2.83947 20.0637 
8.43848 0.18238 20.1405 
12.9545 1.47122 18.6721 
15.7942 1.48119 18.5361 
14.407 2.96076 17.2429 
14.3623 2.86104 20.0717 
14.3411 0.00930442 20.0884 
18.6588 1.59776 18.5746 
20.1575 0.093856 17.1904 
17.1562 2.92343 17.1167 
20.1358 3.09169 17.1807 
19.9912 0.0208995 20.0405 
17.2098 2.79378 20.1632 
20.119 2.87273 20.0263 
17.4761 0.107043 19.9967 
21.5971 1.55949 18.8432 
23.0983 0.135797 17.4418 
23.1445 2.82468 17.4078 
23.1009 0.116759 20.1528 
23.0139 3.00558 20.2242 
24.7231 1.31753 18.8562 
27.406 1.47842 18.886 
25.9225 2.74087 17.4051 
25.9604 2.82801 20.3368 
1.47278 4.32528 18.8137 
0.14323 5.87628 17.3907 
1.31187 7.24429 18.894 
2.91008 5.69707 17.3253 
3.23779 5.49582 20.1334 
4.38511 4.36083 18.5616 
7.20803 4.24898 18.6553 
4.32433 7.30471 18.6946 
5.47255 5.8718 17.2185 