ITEM: TIMESTEP
30046
ITEM: NUMBER OF ATOMS
2001
ITEM: BOX BOUNDS pp pp pp
0.0000000000000000e+00 2.8712000000000000e+01
0.0000000000000000e+00 2.8712000000000000e+01
0.0000000000000000e+00 2.8712000000000000e+01
ITEM: ATOMS x y z c_cna 
1.43261 1.43734 1.42832 3 
2.86799 2.87294 2.86367 3 
2.8685 0.00191198 2.86365 3 
4.30364 1.43728 1.42825 3 
7.17438 1.43659 1.42816 3 
5.739 2.87251 2.86362 3 
5.73942 0.00151757 2.86358 3 
10.0448 1.43554 1.42804 3 
8.6094 2.87157 2.8636 3 
11.4795 2.8701 2.86364 3 
11.4809 2.46422e-06 2.86348 3 
8.61005 0.00068242 2.86352 3 
12.9159 1.4349 1.42797 3 
15.7878 1.43547 1.42796 3 
14.3507 2.86959 2.86374 3 
14.3524 6.48842e-05 2.86352 3 
18.6594 1.43667 1.42804 3 
17.2229 2.87094 2.86408 3 
20.0939 2.87263 2.86478 3 
20.0952 0.00132076 2.86392 3 
17.2241 0.000674731 2.86369 3 
21.5301 1.43758 1.42815 3 
24.4015 1.43748 1.42826 3 
22.9653 2.87316 2.86394 3 
22.9662 0.00167473 2.86385 3 
28.709 2.87272 2.86377 3 
28.7092 0.00179628 2.86375 3 
27.2733 1.4372 1.42834 3 
25.8375 2.87262 2.8638 3 
25.8376 0.0017224 2.8638 3 
1.43208 4.30875 1.42837 3 
1.43244 7.17954 1.42837 3 
2.86808 5.74392 2.86374 3 
4.30347 4.30834 1.42828 3 
7.17419 4.30784 1.42818 3 
4.30352 7.17968 1.42829 3 
7.17443 7.1794 1.42818 3 
5.73904 5.74381 2.86367 3 
10.0443 4.30654 1.42806 3 
10.0449 7.17836 1.42807 3 
8.60951 5.74307 2.86368 3 
11.4791 5.74123 2.8638 3 
12.9139 4.30444 1.42797 3 
15.7858 4.30459 1.42799 3 
12.9142 7.17622 1.42801 3 
15.7811 7.17145 1.42803 3 
14.3476 5.73804 2.86399 3 
18.6583 4.30748 1.42804 3 
18.6593 7.18076 1.42812 3 
17.2208 5.74004 2.86376 3 
20.0902 5.74269 2.86856 3 
24.4012 4.30839 1.42828 3 
21.5278 4.3095 1.42817 3 
21.5217 7.17745 1.42822 3 
22.9649 5.74324 2.86471 3 
24.403 7.17768 1.42831 3 
28.7082 5.74462 2.86383 3 
27.2733 4.30824 1.42837 3 
27.2712 7.18146 1.42838 3 
25.8382 5.74316 2.86406 3 
1.43217 10.0516 1.42838 3 
2.86809 8.61532 2.86381 3 
2.86746 11.4874 2.86404 3 
4.30322 10.0514 1.42831 3 
7.17477 10.0507 1.42819 3 
5.73909 8.61528 2.86376 3 
5.73916 11.4865 2.86388 3 
10.0462 10.0498 1.42808 3 
8.61017 8.61462 2.86383 3 
11.4806 8.61332 2.86411 3 
8.61091 11.4856 2.86394 3 
11.4824 11.4843 2.8647 3 
12.9172 10.0486 1.42802 3 
15.7906 10.0495 1.42805 3 
14.3498 8.61112 2.86374 3 
14.3525 11.4805 2.86842 3 
18.7108 10.101 1.42818 5 
17.2185 8.60867 2.8535 3 
20.0727 8.60388 2.8949 3 
17.2137 11.463 2.89478 3 
19.9449 11.3353 3.26589 5 
17.2185 8.60871 0.00268671 3 
21.5265 9.94695 1.42826 5 
24.3852 10.0673 1.42836 3 
22.9763 8.60285 2.8735 3 
22.9297 11.5227 2.8507 5 
20.7821 12.1722 1.4283 5 
22.9299 11.5227 0.00593045 5 
28.7092 11.4877 2.86484 3 
28.7094 8.6145 2.8641 3 
27.2748 10.0497 1.42841 3 
25.833 8.61952 2.86368 3 
25.8495 11.4762 2.87358 3 
1.43101 12.9249 1.42841 3 
1.43306 15.7944 1.42842 3 
2.86802 14.3587 2.86498 3 
4.30409 15.7932 1.42831 3 
4.30312 12.9227 1.42832 3 
7.17518 12.9215 1.42819 3 
7.17553 15.7924 1.42818 3 
5.73956 14.3574 2.86404 3 
10.0472 12.9204 1.42809 3 
10.0471 15.7917 1.42807 3 
8.61129 14.3565 2.86374 3 
11.4829 14.3556 2.86372 3 
12.9192 12.9181 1.42804 3 
15.7872 12.912 1.42807 3 
12.9181 15.7915 1.42803 3 
15.7874 15.7934 1.42806 3 
14.353 14.3553 2.86445 3 
18.5568 12.9168 1.42819 5 
18.677 15.7757 1.42816 3 
17.2126 14.3668 2.87329 3 
20.1323 14.3203 2.85062 5 
20.1323 14.3203 0.00587183 5 
22.28 13.6708 1.42835 5 
24.5053 12.9262 1.42837 5 
21.5357 15.8959 1.42826 5 
23.1169 14.5075 3.26577 5 
24.3513 15.7419 1.42836 5 
28.7097 14.3624 2.86877 3 
27.2749 12.931 1.42844 3 
27.2716 15.7934 1.42844 3 
25.8484 14.3799 2.89505 3 
1.43607 18.6669 1.42841 3 
2.86976 17.2297 2.86437 3 
2.87122 20.1019 2.86406 3 
0.00261184 20.1051 2.86431 3 
0.000423505 17.2319 2.86407 3 
4.30536 18.6648 1.42831 3 
7.17588 18.6638 1.42818 3 
5.74024 17.2285 2.86391 3 
5.74089 20.1001 2.86375 3 
10.0468 18.6635 1.42807 3 
8.61132 17.2278 2.86358 3 
11.4823 17.2278 2.86349 3 
8.61135 20.0995 2.86352 3 
11.4823 20.0994 2.86341 3 
12.9178 18.6637 1.42803 3 
15.791 18.6617 1.42803 3 
14.3528 17.2287 2.86369 3 
14.3541 20.0987 2.86343 3 
18.6592 18.6655 1.42811 3 
17.2291 17.2236 2.86332 3 
20.0857 17.2402 2.87333 3 
17.224 20.1001 2.86369 3 
20.0972 20.1 2.8645 3 
21.5405 18.6657 1.42821 3 
24.4029 18.6623 1.42833 3 
22.9893 17.2391 2.89493 3 
22.9719 20.1005 2.86858 3 
27.2811 18.6716 1.42843 3 
25.8436 17.2343 2.85372 3 
25.8414 20.1031 2.864 3 
25.8437 17.2343 0.00304386 3 
1.43637 21.5388 1.42838 3 
1.43436 24.4084 1.42834 3 
2.87082 22.9732 2.86389 3 
4.30542 24.4079 1.42827 3 
4.306 21.5367 1.42828 3 
7.17609 21.5354 1.42818 3 
5.74095 22.9718 2.86365 3 
7.17586 24.4068 1.42818 3 
10.0468 21.535 1.42807 3 
8.61136 22.9709 2.86347 3 
11.4823 22.9705 2.86335 3 
10.0466 24.4061 1.42805 3 
12.9182 21.5346 1.428 3 
15.7889 21.5351 1.42802 3 
14.3533 22.9707 2.86338 3 
12.9177 24.4061 1.42797 3 
15.789 24.4062 1.42797 3 
18.6611 21.5349 1.42805 3 
18.6608 24.4059 1.42801 3 
17.2247 22.9708 2.86344 3 
20.0969 22.9702 2.86375 3 
21.5344 21.5338 1.42818 3 
24.4039 21.5358 1.4283 3 
21.5323 24.4058 1.42814 3 
22.9683 22.9707 2.86483 3 
24.4029 24.4067 1.42826 3 
28.7116 22.9737 2.86406 3 
27.2765 21.5386 1.42838 3 
25.8393 22.9723 2.86434 3 
27.2745 24.4079 1.42833 3 
1.43313 27.2786 1.4283 3 
2.86941 25.8434 2.8637 3 
4.30435 27.2784 1.42824 3 
7.17512 27.2777 1.42817 3 
5.74029 25.8428 2.8636 3 
10.0459 27.277 1.42806 3 
8.61093 25.8419 2.86348 3 
11.4818 25.8416 2.86337 3 
12.9171 27.2768 1.42796 3 
15.7888 27.2771 1.42795 3 
14.3531 25.8417 2.86338 3 
18.6602 27.2774 1.428 3 
17.2247 25.8417 2.86347 3 
20.096 25.8418 2.86369 3 
21.5312 27.2777 1.42813 3 
22.967 25.8421 2.864 3 
24.4021 27.278 1.42824 3 
28.7099 25.8433 2.86384 3 
27.2735 27.2784 1.4283 3 
25.8382 25.8427 2.86396 3 
1.43286 1.43722 4.29913 3 
1.43343 1.4369 7.17031 3 
2.86839 2.87264 5.7346 3 
2.86882 0.00181263 5.73455 3 
4.30382 1.43718 4.29902 3 
7.17448 1.4365 4.29901 3 
4.30412 1.43693 7.17006 3 
7.17453 1.43623 7.17013 3 
5.73918 2.87225 5.73454 3 
5.73958 0.00141395 5.73445 3 
10.0448 1.43542 4.2991 3 
10.0446 1.4351 7.17053 3 
8.60937 2.87127 5.73476 3 
11.4792 2.86971 5.73528 3 
8.61004 0.000566887 5.73449 3 
12.9157 1.43472 4.29929 3 
15.7873 1.43512 4.29963 3 
12.9151 1.43419 7.17122 3 
15.7863 1.43404 7.17223 3 
14.3499 2.86884 5.73602 3 
18.6589 1.4361 4.30024 3 
18.6586 1.43479 7.17235 3 
17.2212 2.86915 5.7376 3 
20.0943 2.87051 5.73737 3 
20.0951 0.000785965 5.73552 3 
17.2234 0.000214969 5.73545 3 
21.5304 1.43684 4.29998 3 
24.4019 1.43706 4.29947 3 
21.531 1.43548 7.17196 3 
24.403 1.43595 7.17141 3 
22.9668 2.87123 5.73638 3 
22.9667 0.00118601 5.73534 3 
28.7096 2.87223 5.73493 3 
28.7097 0.00167491 5.73478 3 
27.2736 1.437 4.29929 3 
27.2744 1.43641 7.1708 3 
25.8386 2.87162 5.73549 3 
25.8382 0.00144927 5.73504 3 
1.43245 4.30844 4.29922 3 
1.43304 7.17894 4.29956 3 
1.43332 4.30762 7.17074 3 
1.4345 7.17755 7.17203 3 
2.86864 5.74333 5.73494 3 
4.30383 7.17934 4.29927 3 
7.17431 4.30767 4.29914 3 
4.30369 4.30817 4.29911 3 
7.17454 7.17911 4.29931 3 
4.30447 7.17854 7.17082 3 
4.30411 4.30763 7.17034 3 
7.17432 4.30714 7.17045 3 
5.73925 5.74336 5.73477 3 
7.17453 7.17842 7.17086 3 
10.0442 4.3063 4.29938 3 
10.0447 7.1779 4.29971 3 
10.0438 4.30564 7.17128 3 
8.60938 5.74254 5.73511 3 
10.0438 7.17688 7.17227 3 
11.4785 5.74039 5.73605 3 
15.7848 4.3038 4.30031 3 
12.9136 4.30406 4.29985 3 
12.9135 7.17527 4.30031 3 
15.7799 7.17017 4.29991 3 
12.9125 4.30293 7.17303 3 
15.7818 4.30039 7.17678 3 
12.9102 7.17228 7.17675 3 
14.3461 5.73642 5.73783 3 
15.7694 7.15966 7.19071 3 
18.656 4.30506 4.30312 3 
18.644 7.16507 4.31607 3 
18.6568 4.30184 7.17671 3 
17.2137 5.73263 5.74505 3 
18.6529 7.16241 7.18888 3 
20.0928 5.73621 5.74355 3 
24.4024 4.30713 4.30013 3 
21.5298 4.30683 4.30181 3 
21.5307 7.17051 4.3092 3 
24.4068 7.1739 4.30418 3 
24.4045 4.30457 7.17383 3 
21.5315 4.30339 7.17537 3 
21.5347 7.16656 7.18467 3 
22.969 5.73819 5.74052 3 
24.4093 7.17086 7.18051 3 
28.7093 5.74346 5.73549 3 
27.2739 4.3077 4.29956 3 
27.2724 7.1802 4.29997 3 
27.2753 4.30626 7.17203 3 
25.8405 5.74068 5.73767 3 
27.275 7.17761 7.17356 3 
1.43346 10.0503 4.30017 3 
1.43601 10.0482 7.17379 3 
2.86913 8.61427 5.73549 3 
2.86943 11.4858 5.73636 3 
0.00225983 11.4836 5.74049 3 
4.30374 10.0508 4.29946 3 
7.17493 10.0504 4.2995 3 
4.30486 10.0498 7.17136 3 
5.73946 8.61468 5.73503 3 
7.17496 10.0499 7.17104 3 
5.73974 11.486 5.73529 3 
10.0458 10.0493 4.30024 3 
8.6099 8.61399 5.73554 3 
10.0446 10.0492 7.1723 3 
11.4789 8.61174 5.73757 3 
8.61054 11.4856 5.73551 3 
11.4804 11.4848 5.73722 3 
12.9149 10.0464 4.30305 3 
15.7749 10.0343 4.31597 3 
12.9118 10.0473 7.17657 3 
14.3425 8.60409 5.74498 3 
15.7722 10.0433 7.1888 3 
14.3461 11.4832 5.74336 3 
18.5616 9.95192 4.40328 3 
17.1832 8.57345 5.77884 3 
18.6461 10.0365 7.1881 3 
20.0937 8.58742 5.76719 3 
17.1972 11.4841 5.76708 3 
20.085 11.4754 5.77082 3 
21.5632 9.9996 4.34498 3 
24.3947 10.0577 4.3016 3 
21.5333 10.0413 7.18261 3 
22.9814 8.59667 5.75599 3 
22.9612 11.4911 5.74437 3 
24.4028 10.0496 7.17854 3 
28.7119 8.61215 5.73767 3 
27.2785 10.0457 4.30421 3 
25.8378 8.61472 5.73871 3 
27.2816 10.0433 7.18048 3 
25.8557 11.4711 5.75597 3 
1.43369 12.9228 4.30188 3 
1.43546 15.7966 4.30326 3 
1.43712 12.9211 7.17527 3 
1.43866 15.7958 7.17657 3 
2.87014 14.3583 5.73735 3 
0.00416713 14.3597 5.74352 3 
4.30599 15.7939 7.17224 3 
4.30393 12.9222 4.30003 3 
4.30472 15.7937 4.30035 3 
7.17531 12.9215 4.29955 3 
7.17564 15.7927 4.29945 3 
4.3053 12.9216 7.17187 3 
7.17538 12.9215 7.17104 3 
5.74013 14.3574 5.73553 3 
7.17576 15.7932 7.17091 3 
10.0466 12.9209 4.29984 3 
10.0468 15.7923 4.29921 3 
10.0454 12.9215 7.1718 3 
8.61093 14.3571 5.73519 3 
10.0458 15.7933 7.17115 3 
11.4811 14.3572 5.73611 3 
12.9167 12.9202 4.30157 3 
15.7803 12.9211 4.30898 3 
12.9169 15.7928 4.2998 3 
15.7836 15.7974 4.30385 3 
12.9133 12.922 7.17512 3 
15.7764 12.9252 7.18448 3 
12.9144 15.7949 7.1735 3 
14.348 14.3595 5.74019 3 
15.7806 15.7999 7.18021 3 
18.6093 12.9536 4.34487 3 
18.6672 15.7854 4.30134 3 
18.6509 12.9238 7.18249 3 
17.2064 14.3719 5.75575 3 
18.6591 15.7935 7.17832 3 
20.1006 14.3518 5.74423 3 
21.531 12.9215 4.26237 5 
21.4987 15.8434 4.34491 3 
24.4527 12.8893 4.34503 3 
24.5004 15.8911 4.40343 3 
21.5309 12.9215 7.17582 3 
21.5285 15.8018 7.18244 3 
22.9768 14.3675 5.77086 3 
24.4158 15.8066 7.18798 3 
24.411 12.9192 7.18256 3 
27.2818 12.9219 4.30925 3 
27.2872 15.8087 4.31618 3 
27.2858 12.9179 7.18458 3 
25.8648 14.3589 5.76718 3 
27.2899 15.7997 7.18875 3 
1.43682 18.6678 4.30049 3 
1.44021 18.6708 7.17666 3 
2.87154 17.2313 5.73762 3 
2.87195 20.1027 5.73605 3 
0.00417461 20.1066 5.73786 3 
0.0077753 17.2389 5.74506 3 
4.30574 18.6652 4.29979 3 
7.17599 18.6641 4.29922 3 
4.3068 18.6663 7.17213 3 
5.74072 17.2291 5.73548 3 
7.17617 18.6648 7.17065 3 
5.74121 20.1007 5.73503 3 
10.0466 18.6639 4.29897 3 
8.61117 17.2285 5.73482 3 
10.0461 18.6647 7.17053 3 
11.4814 17.2289 5.73516 3 
8.61133 20.0999 5.73454 3 
11.4818 20.1 5.73459 3 
12.9173 18.6643 4.29916 3 
15.7898 18.663 4.29956 3 
12.9159 18.6657 7.17171 3 
14.3504 17.231 5.73729 3 
15.7872 18.6656 7.17321 3 
14.353 20.0999 5.73508 3 
18.6552 18.6692 4.30385 3 
17.2243 17.2284 5.73838 3 
18.6527 18.6723 7.18021 3 
20.0805 17.2464 5.75573 3 
17.2216 20.1026 5.73728 3 
20.0929 20.105 5.7402 3 
21.5313 18.6726 4.30902 3 
24.4181 18.678 4.31609 3 
21.5272 18.6766 7.18439 3 
22.9682 17.2556 5.76708 3 
22.9691 20.1069 5.74336 3 
24.4091 18.6806 7.18869 3 
27.2822 18.6728 4.30006 3 
25.8788 17.2695 5.77883 3 
27.2928 18.6833 7.19059 3 
25.8484 20.1104 5.74501 3 
1.43673 21.5391 4.30002 3 
1.43463 24.4086 4.29948 3 
1.43784 21.5402 7.17293 3 
2.87123 22.9735 5.73531 3 
1.43531 24.409 7.17118 3 
0.000400004 22.9743 5.73608 3 
4.30623 21.5369 4.29945 3 
7.17617 21.5357 4.29904 3 
7.17594 24.4069 4.29895 3 
4.30557 24.408 4.2992 3 
4.30673 21.5375 7.17114 3 
7.17631 21.5361 7.17028 3 
4.30589 24.4082 7.17048 3 
5.74114 22.972 5.73471 3 
7.17603 24.4071 7.17001 3 
10.0468 21.5352 4.29883 3 
10.0466 24.4062 4.29878 3 
10.0465 21.5357 7.17008 3 
8.61135 22.9711 5.73436 3 
10.0464 24.4064 7.16989 3 
11.4821 22.9708 5.73431 3 
12.9179 21.5349 4.29882 3 
15.7884 21.5356 4.29915 3 
12.9175 24.4062 4.2988 3 
15.7887 24.4064 4.29892 3 
12.9171 21.5357 7.17045 3 
15.7869 21.537 7.17172 3 
14.3527 22.9711 5.7346 3 
15.7878 24.4069 7.17056 3 
12.917 24.4065 7.17011 3 
18.6597 21.5362 4.29978 3 
18.6602 24.4063 4.29918 3 
18.6576 21.5387 7.1735 3 
17.2236 22.9717 5.73515 3 
20.0952 22.9721 5.73611 3 
18.6592 24.4073 7.17118 3 
21.5323 21.5364 4.30164 3 
24.4061 21.5381 4.30317 3 
24.4033 24.4072 4.30033 3 
21.5317 24.4065 4.29989 3 
21.5304 21.5398 7.17508 3 
21.531 24.4078 7.17178 3 
22.9678 22.9727 5.73724 3 
24.4034 24.4084 7.17226 3 
24.4053 21.5413 7.17649 3 
27.2774 21.5393 4.30048 3 
27.2749 24.4082 4.29984 3 
27.2803 21.5427 7.17666 3 
25.8409 22.974 5.73761 3 
27.2759 24.4092 7.1722 3 
1.43338 27.2786 4.29919 3 
1.4339 27.2786 7.1704 3 
2.86974 25.8435 5.73477 3 
4.30451 27.2784 4.29904 3 
7.17521 27.2777 4.29894 3 
4.3048 27.2784 7.17009 3 
5.74043 25.8428 5.7345 3 
7.17526 27.2777 7.16995 3 
11.4807 28.7118 5.73467 3 
10.0459 27.277 4.2989 3 
8.61092 25.842 5.73434 3 
10.0457 27.2769 7.17004 3 
11.4816 25.8416 5.73435 3 
14.3519 28.7118 5.73499 3 
12.917 27.2768 4.29893 3 
15.7884 27.277 4.29911 3 
12.9165 27.2767 7.17031 3 
14.3526 25.8417 5.73452 3 
15.7877 27.2769 7.17071 3 
18.6598 27.2774 4.29935 3 
17.224 25.8419 5.73481 3 
18.6593 27.2772 7.17095 3 
20.0954 25.8422 5.73519 3 
21.5311 27.2777 4.29955 3 
24.4023 27.278 4.29955 3 
21.531 27.2776 7.17107 3 
22.967 25.8425 5.73552 3 
24.4028 27.278 7.17103 3 
28.7104 25.8435 5.73513 3 
27.2738 27.2784 4.29938 3 
25.8388 25.8431 5.73556 3 
27.2745 27.2784 7.17082 3 
2.86896 2.87207 8.60603 3 
1.43403 1.43647 10.0419 3 
2.86933 2.87163 11.4776 3 
2.86965 0.00142755 11.4773 3 
2.86928 0.0016352 8.60581 3 
5.73935 2.87177 8.60589 3 
5.73975 0.00122189 8.60564 3 
4.30444 1.43654 10.0415 3 
7.17449 1.43586 10.0416 3 
5.73943 2.87136 11.4774 3 
5.73985 0.00100325 11.4771 3 
8.60917 2.87077 8.60639 3 
11.4786 2.86901 8.60766 3 
10.0443 1.43468 10.0424 3 
8.60894 2.87038 11.4781 3 
11.4783 2.86879 11.4798 3 
8.60972 0.000110576 11.4774 3 
8.60992 0.00033831 8.60581 3 
14.3486 2.86734 8.60981 3 
12.9144 1.43356 10.0437 3 
15.7863 1.43347 10.0442 3 
14.3496 2.868 11.4808 3 
17.2215 2.86769 8.61023 3 
20.0949 2.86865 8.6097 3 
20.0951 9.95422e-05 8.60725 3 
18.6588 1.43398 10.0441 3 
17.2223 2.86819 11.4809 3 
20.0952 2.86882 11.4804 3 
22.9678 2.86949 8.60892 3 
22.9671 0.000573262 8.60705 3 
21.5314 1.43458 10.0437 3 
24.4035 1.43519 10.0433 3 
22.9677 2.86952 11.4799 3 
22.9673 0.000310309 11.4785 3 
28.7109 2.8711 11.4784 3 
28.7108 0.00124323 11.4778 3 
28.7105 2.87144 8.60679 3 
25.8397 2.87035 8.60796 3 
27.2751 1.43585 10.0426 3 
25.8397 2.87026 11.4792 3 
25.8389 0.00103238 8.60672 3 
28.7104 0.00145899 8.60626 3 
25.8393 0.00079791 11.4782 3 
2.86947 5.74244 8.60681 3 
1.43407 4.30688 10.0426 3 
1.43521 7.17696 10.0442 3 
2.86975 5.74208 11.4784 3 
5.73948 5.74267 8.60633 3 
4.30447 4.30701 10.042 3 
4.30497 7.17787 10.0427 3 
7.17422 4.30657 10.0422 3 
7.17443 7.17794 10.0425 3 
5.73956 5.74223 11.4779 3 
10.0432 4.30499 10.0437 3 
8.60896 5.74181 8.60709 3 
11.4771 5.73908 8.6098 3 
10.0433 7.17689 10.0442 3 
8.6088 5.74166 11.4786 3 
11.4777 5.74014 11.4808 3 
14.343 5.7333 8.61617 3 
15.784 4.30127 10.0481 3 
12.9117 4.30208 10.0469 3 
12.911 7.17449 10.048 3 
15.7816 7.1719 10.0505 3 
14.3481 5.73847 11.4826 3 
17.2181 5.73312 8.61692 3 
20.0949 5.7351 8.61527 3 
18.6581 4.30204 10.0475 3 
18.6569 7.17268 10.0492 3 
17.2213 5.73851 11.4825 3 
20.0949 5.73935 11.4817 3 
22.9697 5.73693 8.61349 3 
21.5318 4.30312 10.0467 3 
21.5317 7.17417 10.0479 3 
22.9679 5.74022 11.4811 3 
24.4048 7.1755 10.047 3 
24.4046 4.3042 10.0456 3 
28.7107 5.74208 8.60798 3 
25.8417 5.73922 8.61116 3 
28.7109 5.74199 11.4792 3 
27.2759 4.30556 10.0442 3 
27.2755 7.17713 10.0452 3 
25.8399 5.74106 11.4803 3 
2.8704 8.61319 8.60792 3 
2.87115 11.4849 8.60881 3 
0.00352401 11.4829 8.61339 3 
0.00137435 8.611 8.61112 3 
1.43641 10.0482 10.0455 3 
2.87043 8.6132 11.4792 3 
2.87107 11.4851 11.4798 3 
0.000303763 11.4849 11.4809 3 
5.73985 8.614 8.60674 3 
5.74031 11.4856 8.607 3 
4.30555 10.0494 10.0432 3 
7.17488 10.0497 10.0427 3 
5.73996 8.61369 11.4783 3 
5.74047 11.4855 11.4785 3 
8.60939 8.61364 8.60735 3 
11.4776 8.61202 8.61017 3 
8.60996 11.4856 8.60721 3 
11.4786 11.4854 8.60954 3 
10.0439 10.0494 10.044 3 
8.60913 8.61358 11.4788 3 
11.478 8.61288 11.4808 3 
8.60964 11.4857 11.4787 3 
11.4787 11.4857 11.4804 3 
14.3429 8.60852 8.61686 3 
14.345 11.4854 8.61512 3 
12.9119 10.0487 10.0475 3 
15.7824 10.0474 10.0492 3 
14.3483 8.61178 11.4824 3 
14.3491 11.4854 11.4817 3 
17.2142 8.60454 8.61957 3 
20.0934 8.6071 8.61618 3 
17.2168 11.4839 8.61607 3 
20.0922 11.4827 8.6128 3 
18.656 10.0465 10.0474 3 
17.2208 8.61114 11.4821 3 
20.0943 8.61185 11.481 3 
17.2215 11.4849 11.481 3 
20.0943 11.4848 11.4797 3 
22.9696 8.60935 8.61465 3 
22.9668 11.4856 8.61207 3 
21.5307 10.0478 10.0462 3 
22.9673 8.61268 11.4807 3 
22.9669 11.4857 11.4799 3 
24.4034 10.0491 10.0465 3 
25.8399 8.61265 8.61171 3 
25.843 11.483 8.6146 3 
28.7116 8.61288 11.4803 3 
27.277 10.0479 10.0469 3 
25.8393 8.6133 11.4805 3 
25.8398 11.4854 11.4806 3 
2.87197 14.3577 8.60949 3 
1.43739 12.9209 10.0464 3 
1.43848 15.7945 10.0472 3 
2.87176 14.3575 11.4801 3 
0.00110845 14.3578 11.4814 3 
0.00530157 14.3577 8.61505 3 
5.74076 14.3575 8.60714 3 
4.30611 12.9213 10.0436 3 
7.17536 12.9216 10.0426 3 
4.30676 15.7938 10.0438 3 
7.1758 15.7935 10.0425 3 
5.74096 14.3575 11.4785 3 
8.61043 14.3575 8.60691 3 
11.4794 14.3582 8.60869 3 
10.0445 12.9218 10.0436 3 
10.0451 15.7939 10.0431 3 
8.61016 14.3578 11.4784 3 
11.4794 14.3582 11.4798 3 
14.3467 14.3602 8.61327 3 
12.913 12.9223 10.0465 3 
15.7839 12.9222 10.0478 3 
12.914 15.795 10.0455 3 
15.7852 15.7954 10.0469 3 
14.35 14.3584 11.481 3 
17.219 14.3602 8.61448 3 
20.095 14.3575 8.61197 3 
18.6573 12.9213 10.0462 3 
18.6586 15.7941 10.0463 3 
17.2223 14.3579 11.4807 3 
20.095 14.3576 11.4798 3 
22.9697 14.3605 8.61269 3 
21.5309 12.9216 10.0449 3 
21.5312 15.7954 10.0461 3 
22.9676 14.3584 11.4796 3 
24.4059 15.7967 10.0472 3 
24.4046 12.9219 10.0461 3 
25.8452 14.3592 8.61598 3 
27.2782 12.921 10.0477 3 
27.2797 15.7958 10.0489 3 
25.8406 14.3584 11.4807 3 
2.87298 17.2311 8.60996 3 
2.8734 20.104 8.60957 3 
1.4393 18.6686 10.0477 3 
2.87241 17.2303 11.4804 3 
2.87272 20.1029 11.4804 3 
0.00212572 20.1046 11.4822 3 
0.0072759 20.1097 8.61592 3 
0.00731211 17.2345 8.61666 3 
0.0019359 17.2313 11.482 3 
5.7413 17.2295 8.60714 3 
5.74167 20.1014 8.60686 3 
4.3073 18.6663 10.0439 3 
7.17622 18.6653 10.0423 3 
5.74145 17.2296 11.4785 3 
5.74176 20.1015 11.4784 3 
8.61084 17.2292 8.60652 3 
11.4802 17.2301 8.60769 3 
8.61117 20.1006 8.60609 3 
11.4811 20.1009 8.60658 3 
10.0456 18.6654 10.0425 3 
8.61063 17.2296 11.4781 3 
11.4801 17.2301 11.4792 3 
8.61101 20.101 11.4777 3 
11.4808 20.1012 11.4783 3 
14.3489 17.2322 8.6109 3 
14.3516 20.1012 8.60772 3 
12.9152 18.6663 10.044 3 
15.7866 18.6661 10.045 3 
14.3507 17.2304 11.4802 3 
14.3515 20.1013 11.4791 3 
17.2222 17.2306 8.61149 3 
20.0923 17.2338 8.61441 3 
17.2204 20.104 8.61089 3 
20.0923 20.1063 8.6132 3 
18.6572 18.6677 10.0468 3 
17.2228 17.23 11.4805 3 
20.0947 17.2306 11.4806 3 
17.2222 20.1022 11.4802 3 
20.0942 20.103 11.4809 3 
22.9685 17.236 8.6159 3 
22.967 20.108 8.61496 3 
21.5303 18.669 10.0476 3 
22.9676 17.2313 11.4807 3 
22.9671 20.1038 11.4814 3 
24.405 18.6704 10.0489 3 
25.8478 17.2385 8.61933 3 
25.8439 20.1099 8.61665 3 
27.2805 18.6712 10.0502 3 
25.8413 17.232 11.4817 3 
25.8407 20.1045 11.4821 3 
2.87188 22.9741 8.60746 3 
0.0016968 22.9758 8.60958 3 
1.43592 24.4096 10.0434 3 
1.43866 21.541 10.0465 3 
2.87207 22.9743 11.4794 3 
0.000637266 22.9751 11.4804 3 
5.74141 22.9724 8.60618 3 
4.30625 24.4085 10.0421 3 
7.17607 24.4073 10.0414 3 
4.30731 21.5381 10.0434 3 
7.1764 21.5366 10.0419 3 
5.74157 22.9727 11.4779 3 
8.61126 22.9715 8.6057 3 
11.4816 22.9712 8.60586 3 
10.0461 24.4067 10.0414 3 
10.0461 21.5362 10.0418 3 
8.61111 22.9718 11.4773 3 
11.4811 22.9716 11.4776 3 
14.3518 22.9719 8.60661 3 
12.9164 21.5364 10.0425 3 
15.7863 21.5377 10.0441 3 
12.9164 24.4068 10.0419 3 
15.7872 24.4074 10.0426 3 
14.3514 22.9721 11.4784 3 
17.2225 22.9729 8.60772 3 
20.0943 22.9737 8.60867 3 
18.6575 21.539 10.0454 3 
18.6586 24.408 10.0432 3 
17.2225 22.9729 11.4792 3 
20.0944 22.9736 11.4798 3 
22.9671 22.9745 8.60944 3 
21.5302 21.5401 10.0464 3 
21.5308 24.4085 10.0436 3 
24.4039 21.541 10.0472 3 
22.9669 22.9742 11.4802 3 
24.4033 24.4091 10.0439 3 
25.8407 22.9754 8.61 3 
25.8398 22.9748 11.4805 3 
27.2759 24.4096 10.0439 3 
27.2781 21.5418 10.0477 3 
2.87023 25.8437 8.60623 3 
2.87056 25.8438 11.4779 3 
1.43447 27.2787 10.042 3 
5.74063 25.8429 8.60574 3 
4.30511 27.2784 10.0415 3 
7.17528 27.2776 10.0413 3 
5.74075 25.843 11.4773 3 
11.4798 28.7113 11.4781 3 
11.4802 28.7115 8.60633 3 
8.61081 25.842 8.60556 3 
11.4812 25.8417 8.60576 3 
10.0454 27.2768 10.0416 3 
8.61064 25.8421 11.4771 3 
11.4808 25.8417 11.4774 3 
14.3512 28.7112 8.60704 3 
14.352 25.8418 8.60619 3 
14.351 28.7111 11.4787 3 
12.9159 27.2765 10.0421 3 
15.7872 27.2767 10.0425 3 
14.3516 25.8419 11.4779 3 
17.223 28.7116 8.60732 3 
17.2233 25.8422 8.60662 3 
20.095 25.8426 8.60695 3 
20.0949 25.8428 11.4785 3 
18.659 27.2771 10.0427 3 
17.223 25.8423 11.4783 3 
20.0951 28.7118 11.4787 3 
17.2229 28.7113 11.4788 3 
22.967 25.8431 8.60717 3 
22.967 25.8433 11.4786 3 
24.4031 27.278 10.0426 3 
21.5311 27.2776 10.0427 3 
28.7113 25.844 11.4784 3 
28.7112 25.844 8.60693 3 
25.8392 25.8436 8.60725 3 
25.8393 25.8437 11.4786 3 
27.275 27.2784 10.0424 3 
1.43424 1.43628 12.9133 3 
1.43415 1.43632 15.7841 3 
2.86933 2.87151 14.3487 3 
2.8697 0.00133189 14.3486 3 
4.30458 1.43629 12.9129 3 
7.1744 1.43561 12.9131 3 
4.30451 1.43621 15.7842 3 
7.1743 1.43555 15.7843 3 
5.73936 2.87118 14.3487 3 
5.73981 0.00089487 14.3486 3 
10.0441 1.43456 12.9139 3 
10.0442 1.43473 15.7844 3 
8.60896 2.87044 14.3491 3 
11.4791 2.86961 14.3497 3 
8.60958 3.06155e-05 14.3488 3 
12.9148 1.4339 12.9146 3 
15.7867 1.43387 12.9148 3 
12.9151 1.43428 15.7844 3 
15.7869 1.43431 15.7844 3 
14.3505 2.86928 14.3499 3 
18.659 1.43425 12.9147 3 
17.2228 2.86947 14.3499 3 
20.0952 2.86993 14.3497 3 
18.6591 1.43465 15.7843 3 
21.5314 1.43476 12.9145 3 
24.4035 1.4353 12.9141 3 
21.5314 1.4351 15.7842 3 
22.9674 2.8704 14.3495 3 
24.4034 1.43558 15.7841 3 
22.9673 0.000385079 14.3491 3 
27.2752 1.43585 12.9137 3 
25.8393 2.87089 14.3492 3 
25.8393 0.000839673 14.349 3 
28.7107 2.87133 14.3489 3 
27.2751 1.43601 15.7841 3 
28.7108 0.00123559 14.3488 3 
1.43411 4.30679 12.9137 3 
1.43444 7.17771 12.9143 3 
2.86942 5.74227 14.349 3 
1.43394 4.30687 15.7841 3 
1.43403 7.17804 15.7841 3 
4.30452 4.30675 12.9133 3 
4.30487 7.17782 12.9138 3 
7.17415 4.30636 12.9135 3 
7.17435 7.1778 12.9138 3 
5.73942 5.74216 14.3489 3 
4.30456 7.17794 15.7842 3 
7.17405 4.30635 15.7843 3 
4.30434 4.30674 15.7842 3 
7.17423 7.17784 15.7843 3 
10.0435 4.30541 12.9146 3 
10.0436 7.17732 12.9148 3 
11.4789 5.74114 14.3499 3 
8.60889 5.74179 14.3493 3 
10.0438 4.30572 15.7844 3 
10.044 7.17757 15.7844 3 
12.9138 4.30431 12.9157 3 
15.786 4.30407 12.916 3 
12.9138 7.17649 12.916 3 
15.7856 7.17594 12.9162 3 
12.9146 4.30515 15.7844 3 
15.7866 4.30508 15.7844 3 
12.9147 7.17714 15.7844 3 
15.7865 7.17695 15.7843 3 
14.3502 5.74065 14.3502 3 
18.6588 4.30449 12.9157 3 
18.6584 7.17626 12.9157 3 
17.2225 5.74077 14.3501 3 
18.659 4.30542 15.7843 3 
18.6588 7.17718 15.7843 3 
20.095 5.74121 14.3498 3 
21.5314 4.30511 12.9153 3 
24.4036 4.30568 12.9149 3 
21.5311 7.1769 12.9152 3 
24.4033 7.17742 12.915 3 
22.9672 5.74168 14.3496 3 
21.5313 4.30587 15.7842 3 
24.4033 4.30628 15.7841 3 
21.531 7.17763 15.7841 3 
24.403 7.17798 15.7841 3 
28.7105 5.74233 14.3492 3 
27.2752 4.30631 12.9143 3 
27.275 7.17779 12.9147 3 
25.8391 5.74206 14.3494 3 
27.2749 4.30666 15.7841 3 
27.2747 7.17813 15.784 3 
1.43488 10.0493 12.9148 3 
2.87013 11.4855 14.3493 3 
1.43428 10.0497 15.784 3 
2.86973 8.61369 14.3492 3 
4.30534 10.0495 12.9141 3 
7.17479 10.0497 12.9138 3 
4.30496 10.0496 15.7841 3 
7.17465 10.0497 15.7842 3 
5.74025 11.4856 14.3491 3 
5.73976 8.61372 14.349 3 
10.0441 10.0496 12.9147 3 
8.60968 11.4858 14.3492 3 
11.4792 8.6134 14.3499 3 
8.60921 8.61367 14.3493 3 
10.0444 10.0497 15.7843 3 
11.4797 11.4857 14.3497 3 
12.9143 10.0493 12.9157 3 
15.786 10.0489 12.9157 3 
14.3505 8.61301 14.3501 3 
12.9152 10.0495 15.7843 3 
15.7869 10.0493 15.7843 3 
14.351 11.4855 14.3499 3 
18.6584 10.0488 12.9149 3 
17.2225 8.61293 14.3498 3 
20.0949 11.4855 14.3492 3 
18.6589 10.0493 15.7842 3 
17.2229 11.4853 14.3496 3 
20.0948 8.61328 14.3495 3 
21.5307 10.0493 12.9145 3 
24.4029 10.0497 12.9147 3 
22.9669 11.4859 14.3492 3 
21.5309 10.0497 15.7841 3 
24.4028 10.05 15.7841 3 
22.9669 8.61373 14.3494 3 
28.7106 8.6138 14.3494 3 
28.7109 11.4857 14.3494 3 
27.2752 10.0495 12.9149 3 
25.8389 11.4859 14.3493 3 
25.8388 8.61396 14.3494 3 
27.2747 10.0499 15.784 3 
1.43542 12.9215 12.915 3 
1.43601 15.794 12.9153 3 
2.87061 14.3576 14.3494 3 
1.43466 12.9217 15.784 3 
1.43511 15.7939 15.784 3 
4.30586 12.9215 12.9143 3 
7.17529 12.9217 12.9138 3 
4.30638 15.7937 12.9144 3 
7.17577 15.7936 12.9137 3 
5.74073 14.3576 14.3491 3 
4.3059 15.7936 15.784 3 
4.30543 12.9216 15.7841 3 
7.17517 12.9217 15.7842 3 
7.17564 15.7936 15.7841 3 
10.0446 12.9219 12.9144 3 
10.0451 15.7939 12.9141 3 
11.4802 14.3579 14.3495 3 
8.61021 14.3578 14.3491 3 
10.0449 12.9218 15.7843 3 
10.0454 15.7938 15.7842 3 
12.9149 12.9219 12.9153 3 
15.7866 12.9216 12.9153 3 
12.9155 15.794 12.9149 3 
15.787 15.7938 12.9151 3 
12.9156 12.9217 15.7843 3 
15.7873 12.9215 15.7843 3 
12.916 15.7937 15.7843 3 
15.7876 15.7935 15.7843 3 
14.3514 14.3577 14.3497 3 
18.6588 12.9213 12.9146 3 
18.6592 15.7936 12.9148 3 
17.2233 14.3575 14.3495 3 
20.0953 14.3575 14.3492 3 
18.6593 12.9214 15.7842 3 
18.6595 15.7934 15.7842 3 
21.531 12.9217 12.9142 3 
21.5313 15.794 12.9144 3 
24.4032 12.922 12.9144 3 
24.4037 15.7945 12.9146 3 
22.9672 14.3579 14.3491 3 
21.5311 12.9217 15.7841 3 
24.403 12.922 15.784 3 
21.5313 15.7937 15.7841 3 
24.4033 15.794 15.784 3 
27.2756 12.9218 12.915 3 
27.2762 15.7944 12.9153 3 
28.7113 14.3578 14.3495 3 
25.8393 14.358 14.3493 3 
27.275 12.9219 15.784 3 
27.2754 15.7941 15.784 3 
1.43649 18.6667 12.9155 3 
2.8711 17.2299 14.3495 3 
8.90924e-07 20.1025 14.3498 3 
2.87136 20.102 14.3495 3 
1.43552 18.6661 15.784 3 
4.3068 18.6659 12.9144 3 
7.17615 18.6654 12.9135 3 
5.74118 17.2296 14.349 3 
5.74143 20.1014 14.349 3 
4.30629 18.6657 15.784 3 
7.17602 18.6654 15.7841 3 
10.0456 18.6655 12.9137 3 
8.61095 20.101 14.3488 3 
8.61065 17.2296 14.349 3 
11.481 20.101 14.3491 3 
10.0457 18.6653 15.7842 3 
11.4807 17.2297 14.3493 3 
12.916 18.6656 12.9144 3 
15.7873 18.6655 12.9147 3 
12.9163 18.6653 15.7843 3 
15.7876 18.6651 15.7843 3 
14.3518 20.1009 14.3493 3 
14.3517 17.2296 14.3495 3 
18.6588 18.6659 12.915 3 
20.0952 17.2296 14.3494 3 
18.6593 18.6653 15.7842 3 
20.095 20.1015 14.3496 3 
17.2231 20.1011 14.3495 3 
17.2234 17.2294 14.3495 3 
21.531 18.6663 12.9151 3 
24.4037 18.6669 12.9153 3 
22.9673 17.23 14.3493 3 
21.5312 18.6656 15.7841 3 
24.4034 18.666 15.784 3 
22.9671 20.1019 14.3496 3 
27.2766 18.6672 12.9158 3 
25.8396 17.2303 14.3495 3 
28.7118 17.2302 14.3497 3 
27.2757 18.6663 15.784 3 
25.8396 20.1023 14.3497 3 
1.43642 21.5388 12.9153 3 
1.43547 24.4091 12.9142 3 
1.43557 21.5379 15.784 3 
1.43511 24.4087 15.7841 3 
2.87116 22.9734 14.3493 3 
4.30686 21.5377 12.9142 3 
7.1763 21.5368 12.9133 3 
4.30626 24.4085 12.9136 3 
7.17601 24.4074 12.913 3 
5.74133 22.9726 14.3489 3 
4.30599 24.4082 15.7841 3 
4.30637 21.5373 15.7841 3 
7.17616 21.5367 15.7842 3 
7.17589 24.4074 15.7842 3 
10.0458 24.4068 12.913 3 
10.0459 21.5364 12.9133 3 
8.61098 22.9719 14.3487 3 
11.481 22.9716 14.3488 3 
10.0459 21.5364 15.7843 3 
10.0457 24.4068 15.7843 3 
15.7871 24.4072 12.9139 3 
12.9163 21.5364 12.9137 3 
15.7871 21.5369 12.9144 3 
12.9161 24.4068 12.9134 3 
14.3516 22.9718 14.3491 3 
12.9164 21.5363 15.7843 3 
15.7874 21.5365 15.7843 3 
12.9161 24.4067 15.7843 3 
15.7872 24.407 15.7843 3 
18.6586 21.5375 12.9148 3 
18.6587 24.4078 12.9142 3 
18.659 21.5368 15.7843 3 
18.6589 24.4074 15.7843 3 
20.0948 22.9726 14.3495 3 
17.223 22.9722 14.3494 3 
21.5307 21.538 12.9151 3 
24.4032 24.4087 12.9145 3 
21.5308 24.4083 12.9143 3 
24.4034 21.5386 12.9154 3 
22.967 22.9731 14.3495 3 
21.531 21.5372 15.7842 3 
21.531 24.4079 15.7842 3 
24.4032 24.4083 15.7841 3 
24.4032 21.5376 15.7841 3 
27.2755 24.4091 12.9145 3 
27.2762 21.539 12.9156 3 
27.2756 21.538 15.784 3 
27.2753 24.4086 15.7841 3 
25.8394 22.9735 14.3496 3 
28.7117 22.9737 14.3495 3 
1.43461 27.2786 12.9133 3 
2.87038 25.8436 14.3489 3 
1.43453 27.2785 15.7841 3 
4.30525 27.2783 12.913 3 
7.17519 27.2775 12.9129 3 
5.7407 25.843 14.3487 3 
4.30517 27.2782 15.7842 3 
7.17508 27.2775 15.7843 3 
10.0451 27.2767 12.9132 3 
8.61048 25.8421 14.3486 3 
11.4799 28.7114 14.3491 3 
10.045 27.2767 15.7844 3 
11.4806 25.8417 14.3488 3 
14.3511 28.7112 14.3493 3 
12.9157 27.2765 12.9136 3 
15.7871 27.2766 12.9138 3 
12.9157 27.2765 15.7844 3 
15.7871 27.2766 15.7844 3 
14.3515 25.8418 14.349 3 
20.0952 28.7119 14.3493 3 
17.223 28.7115 14.3494 3 
20.0949 25.8426 14.3492 3 
18.659 27.277 12.9139 3 
18.6591 27.277 15.7843 3 
17.223 25.8421 14.3492 3 
21.5311 27.2775 12.9139 3 
24.4032 27.278 12.9137 3 
21.5312 27.2774 15.7842 3 
24.4033 27.2779 15.7841 3 
22.9671 25.843 14.3491 3 
28.7111 25.8437 14.349 3 
27.2752 27.2783 12.9136 3 
27.2751 27.2783 15.7841 3 
25.8392 25.8435 14.3491 3 
1.43408 1.43625 18.655 3 
2.8692 2.87152 17.2196 3 