ITEM: TIMESTEP
31044
ITEM: NUMBER OF ATOMS
2001
ITEM: BOX BOUNDS pp pp pp
0.0000000000000000e+00 2.8712000000000000e+01
0.0000000000000000e+00 2.8712000000000000e+01
0.0000000000000000e+00 2.8712000000000000e+01
ITEM: ATOMS x y z c_cna 
1.43251 1.43729 1.4283 3 
2.86792 2.87284 2.86365 3 
2.8684 0.00185744 2.86368 3 
4.30357 1.43719 1.42823 3 
7.17436 1.43651 1.42814 3 
5.73892 2.87241 2.86357 3 
5.73937 0.00147598 2.86357 3 
10.0448 1.4355 1.42808 3 
8.60933 2.87154 2.86359 3 
11.4795 2.8701 2.86371 3 
11.4809 3.19991e-06 2.86354 3 
8.61002 0.000619701 2.86352 3 
12.9159 1.4349 1.42808 3 
15.7879 1.43546 1.42809 3 
14.3507 2.86962 2.86383 3 
14.3524 7.98524e-05 2.86363 3 
18.6594 1.43666 1.42815 3 
17.2229 2.871 2.86418 3 
20.094 2.87268 2.86486 3 
20.0952 0.00136196 2.86404 3 
17.2241 0.000698552 2.86382 3 
21.5301 1.4376 1.42823 3 
24.4014 1.43745 1.42831 3 
22.9654 2.87321 2.864 3 
22.9662 0.00168728 2.86393 3 
28.7089 2.87271 2.86376 3 
28.7091 0.00177598 2.86378 3 
27.2732 1.4372 1.42833 3 
25.8375 2.87264 2.86382 3 
25.8375 0.00170054 2.86386 3 
1.43208 4.30867 1.42827 3 
1.43247 7.17944 1.42824 3 
2.86805 5.74384 2.86366 3 
4.30344 4.30825 1.4282 3 
7.17415 4.30776 1.42812 3 
4.30353 7.17958 1.42817 3 
7.17442 7.17931 1.42808 3 
5.73898 5.74371 2.8636 3 
10.0442 4.3065 1.42809 3 
10.0449 7.17831 1.42804 3 
8.60942 5.743 2.86367 3 
11.4791 5.74122 2.86382 3 
15.7858 4.30459 1.42808 3 
12.9139 4.30439 1.42807 3 
12.9142 7.17619 1.42804 3 
15.7812 7.17144 1.42807 3 
14.3477 5.73805 2.86404 3 
18.6583 4.3075 1.42813 3 
18.6593 7.18082 1.42814 3 
17.2208 5.74014 2.86382 3 
20.0903 5.74277 2.8686 3 
24.4012 4.30842 1.4283 3 
21.5279 4.30951 1.42824 3 
21.5217 7.17749 1.42822 3 
22.965 5.7433 2.86474 3 
24.403 7.1777 1.42829 3 
28.7082 5.74456 2.86375 3 
27.2733 4.30822 1.42831 3 
27.2713 7.18143 1.42829 3 
25.8382 5.74319 2.86406 3 
1.43222 10.0515 1.42824 3 
2.86809 8.61525 2.86369 3 
2.86751 11.4874 2.86388 3 
4.30323 10.0513 1.42816 3 
7.17478 10.0506 1.4281 3 
5.73906 8.61519 2.86365 3 
5.73912 11.4864 2.86377 3 
10.0462 10.0497 1.42807 3 
8.6101 8.61455 2.8638 3 
11.4805 8.61326 2.86414 3 
8.61082 11.4855 2.86392 3 
11.4823 11.4842 2.86474 3 
12.9172 10.0486 1.42806 3 
15.7906 10.0496 1.42807 3 
14.3498 8.61111 2.86376 3 
14.3525 11.4805 2.86845 3 
18.7108 10.1011 1.4281 5 
17.2185 8.60872 2.8535 3 
20.0728 8.60394 2.89486 3 
17.2137 11.463 2.89478 3 
19.945 11.3354 3.26582 5 
17.2185 8.60872 0.0027134 3 
21.5265 9.94708 1.42821 5 
24.3852 10.0674 1.42828 3 
22.9764 8.60295 2.87346 3 
22.9299 11.5228 2.8506 5 
20.7822 12.1726 1.42821 5 
22.9299 11.5227 0.00585213 5 
28.7093 11.4877 2.86468 3 
28.7095 8.61448 2.86398 3 
27.2749 10.0496 1.42828 3 
25.8331 8.61954 2.86359 3 
25.8496 11.4762 2.87347 3 
1.43109 12.9249 1.42824 3 
1.43314 15.7943 1.42825 3 
2.86809 14.3587 2.86483 3 
4.30414 15.7932 1.42818 3 
4.30314 12.9226 1.42818 3 
7.17516 12.9214 1.4281 3 
7.17553 15.7923 1.42812 3 
5.73954 14.3573 2.86395 3 
10.0472 12.9202 1.42806 3 
10.047 15.7917 1.42807 3 
8.61124 14.3564 2.86369 3 
11.4828 14.3555 2.86375 3 
12.9192 12.918 1.42807 3 
15.7873 12.912 1.4281 3 
12.9181 15.7914 1.42807 3 
15.7874 15.7933 1.42808 3 
14.353 14.3552 2.86448 3 
18.5568 12.9168 1.42814 5 
18.6771 15.7757 1.42812 3 
17.2127 14.3668 2.87327 3 
20.1324 14.3203 2.85054 5 
20.1324 14.3203 0.00582445 5 
22.2802 13.6706 1.42826 5 
24.5055 12.9261 1.42824 5 
21.5357 15.896 1.42821 5 
23.1171 14.5076 3.26579 5 
24.3514 15.7419 1.42827 5 
28.7098 14.3624 2.86862 3 
27.275 12.931 1.42826 3 
27.2717 15.7934 1.42828 3 
25.8485 14.3799 2.89492 3 
1.43613 18.6669 1.42825 3 
2.86982 17.2297 2.8642 3 
2.87127 20.102 2.86391 3 
0.00267773 20.1051 2.86419 3 
0.000513202 17.2319 2.86392 3 
4.3054 18.6648 1.42817 3 
7.17586 18.6638 1.42807 3 
5.74027 17.2285 2.86378 3 
5.74091 20.1002 2.86364 3 
10.0467 18.6635 1.42803 3 
8.61127 17.2278 2.86351 3 
11.4822 17.2278 2.86348 3 
8.61133 20.0995 2.86345 3 
11.4822 20.0993 2.86342 3 
12.9178 18.6637 1.42805 3 
15.791 18.6617 1.42811 3 
14.3528 17.2286 2.86373 3 
14.3541 20.0986 2.86349 3 
18.6593 18.6655 1.42816 3 
17.2292 17.2235 2.86334 3 
20.0858 17.2402 2.87335 3 
17.224 20.1 2.86378 3 
20.0972 20.0999 2.86462 3 
21.5406 18.6656 1.42826 3 
24.403 18.6622 1.42831 3 
22.9894 17.2391 2.89491 3 
22.972 20.1004 2.86863 3 
27.2812 18.6716 1.42831 3 
25.8438 17.2343 2.85364 3 
25.8415 20.103 2.86396 3 
25.8438 17.2343 0.00294409 3 
1.43638 21.5389 1.42829 3 
2.87086 22.9733 2.86382 3 
1.43435 24.4085 1.42831 3 
4.30541 24.4079 1.42822 3 
4.30602 21.5368 1.4282 3 
7.17607 21.5355 1.42812 3 
5.74096 22.9718 2.86359 3 
7.17586 24.4069 1.42812 3 
10.0468 21.535 1.42807 3 
8.61137 22.9709 2.86346 3 
11.4823 22.9705 2.86344 3 
10.0466 24.4062 1.42809 3 
12.9182 21.5346 1.4281 3 
15.7889 21.5351 1.42814 3 
14.3533 22.9706 2.8635 3 
12.9177 24.4061 1.42813 3 
15.7891 24.4062 1.42816 3 
18.6611 21.5349 1.4282 3 
18.6609 24.4059 1.42822 3 
17.2247 22.9707 2.8636 3 
20.0969 22.9701 2.86391 3 
21.5345 21.5337 1.42827 3 
24.404 21.5357 1.42834 3 
21.5323 24.4058 1.42829 3 
22.9683 22.9706 2.86493 3 
24.4029 24.4067 1.42835 3 
28.7116 22.9737 2.86403 3 
27.2765 21.5387 1.42834 3 
25.8393 22.9723 2.86438 3 
27.2744 24.4079 1.42836 3 
1.43306 27.2786 1.42832 3 
2.86938 25.8434 2.86375 3 
4.30431 27.2784 1.42823 3 
7.17509 27.2777 1.42811 3 
5.74028 25.8428 2.8636 3 
10.0459 27.277 1.42809 3 
8.61093 25.8419 2.86348 3 
11.4818 25.8416 2.86347 3 
12.9171 27.2768 1.42811 3 
15.7888 27.2771 1.42813 3 
14.3531 25.8416 2.86353 3 
18.6602 27.2774 1.42819 3 
17.2247 25.8417 2.86364 3 
20.0961 25.8417 2.86385 3 
21.5311 27.2777 1.42825 3 
22.967 25.8421 2.86413 3 
24.402 27.278 1.42834 3 
28.7098 25.8433 2.86389 3 
27.2735 27.2783 1.42835 3 
25.8381 25.8427 2.86406 3 
1.43276 1.43717 4.29918 3 
1.43333 1.43682 7.17042 3 
2.8683 2.87254 5.73466 3 
2.86871 0.00173777 5.73463 3 
4.30373 1.4371 4.29903 3 
7.17442 1.43644 4.29901 3 
4.30401 1.43684 7.17012 3 
7.17445 1.43619 7.17015 3 
5.73905 2.87216 5.73458 3 
5.73953 0.00137077 5.73448 3 
10.0448 1.4354 4.29912 3 
10.0446 1.43511 7.17053 3 
8.60929 2.87124 5.73478 3 
11.4792 2.86974 5.73527 3 
8.61002 0.000539589 5.7345 3 
12.9157 1.43478 4.29934 3 
15.7874 1.4352 4.2997 3 
12.9151 1.43426 7.17119 3 
15.7863 1.43417 7.17221 3 
14.3499 2.86894 5.73602 3 
18.6589 1.43619 4.30034 3 
18.6587 1.43494 7.17237 3 
17.2213 2.86931 5.73763 3 
20.0944 2.87068 5.7374 3 
20.0951 0.000880798 5.73561 3 
17.2235 0.000301874 5.73551 3 
21.5305 1.43694 4.30007 3 
24.4019 1.43707 4.29952 3 
21.531 1.43562 7.17199 3 
24.403 1.436 7.17145 3 
22.9669 2.87133 5.73641 3 
22.9666 0.00125508 5.73542 3 
28.7096 2.8722 5.735 3 
27.2735 1.43699 4.29933 3 
28.7096 0.00162703 5.73486 3 
27.2744 1.4364 7.17088 3 
25.8386 2.87166 5.73553 3 
25.8381 0.00143666 5.73511 3 
1.43243 4.30837 4.29922 3 
1.43304 7.17891 4.29949 3 
1.43327 4.30759 7.17082 3 
1.4345 7.17756 7.17205 3 
2.86858 5.74327 5.73495 3 
4.30378 7.17927 4.2992 3 
7.17419 4.30757 4.29913 3 
4.30361 4.30805 4.29909 3 
7.17443 7.17902 4.29928 3 
4.30437 7.1785 7.17085 3 
4.30396 4.30755 7.17038 3 
7.17417 4.3071 7.17047 3 
5.73913 5.74328 5.73476 3 
7.17437 7.17839 7.17085 3 
10.0441 4.30629 4.29938 3 
10.0446 7.17784 4.29971 3 
10.0437 4.30566 7.17125 3 
8.60924 5.7425 5.73511 3 
10.0437 7.17686 7.17224 3 
11.4784 5.7404 5.73605 3 
15.7849 4.30392 4.30034 3 
12.9136 4.30411 4.29987 3 
12.9135 7.17526 4.30032 3 
15.7799 7.17027 4.29994 3 
12.9125 4.30299 7.173 3 
15.7819 4.30057 7.17678 3 
12.9102 7.17232 7.17674 3 
14.3461 5.73651 5.73786 3 
15.7694 7.15983 7.19069 3 
18.6561 4.3052 4.30317 3 
18.644 7.16523 4.31606 3 
18.6569 4.30205 7.1767 3 
17.2138 5.73282 5.74504 3 
18.653 7.16262 7.18884 3 
20.0929 5.73637 5.74352 3 
24.4025 4.30721 4.30017 3 
21.5299 4.30694 4.30184 3 
21.5308 7.17064 4.30917 3 
24.4069 7.17401 4.30416 3 
24.4045 4.30468 7.17386 3 
21.5316 4.30355 7.17537 3 
21.5348 7.1667 7.18463 3 
22.9692 5.73831 5.74051 3 
24.4095 7.171 7.18049 3 
28.7094 5.74345 5.73549 3 
27.2739 4.30771 4.29957 3 
27.2725 7.18021 4.29992 3 
27.2753 4.30629 7.17209 3 
25.8406 5.74078 5.73768 3 
27.2751 7.17769 7.17355 3 
1.43352 10.0503 4.30005 3 
1.43606 10.0483 7.17374 3 
2.86911 8.61424 5.73544 3 
2.86945 11.4858 5.7363 3 
0.00237429 11.4836 5.74038 3 
4.3037 10.0508 4.29937 3 
7.17481 10.0503 4.29946 3 
4.30479 10.0498 7.17137 3 
5.73935 8.61462 5.73502 3 
7.17482 10.0499 7.17105 3 
5.73961 11.486 5.73529 3 
10.0457 10.0493 4.30026 3 
8.60976 8.61394 5.73553 3 
10.0445 10.0492 7.17229 3 
11.4789 8.6117 5.73757 3 
8.61038 11.4855 5.73551 3 
11.4803 11.4847 5.73722 3 
12.9148 10.0464 4.30306 3 
15.7749 10.0343 4.31596 3 
12.9117 10.0473 7.17656 3 
14.3424 8.60416 5.74497 3 
15.7722 10.0434 7.18874 3 
14.3461 11.4833 5.74332 3 
18.5616 9.95191 4.40326 3 
17.1833 8.5736 5.77878 3 
18.6462 10.0366 7.18801 3 
20.0938 8.58758 5.76712 3 
17.1972 11.4841 5.767 3 
20.0851 11.4755 5.77074 3 
24.3949 10.0577 4.30152 3 
21.5633 9.99973 4.34491 3 
21.5334 10.0414 7.18254 3 
22.9815 8.59682 5.75594 3 
22.9614 11.4912 5.74426 3 
24.403 10.0497 7.17847 3 
28.712 8.61218 5.7376 3 
27.2786 10.0458 4.30411 3 
25.8379 8.6148 5.73865 3 
27.2817 10.0433 7.18041 3 
25.8558 11.4712 5.75586 3 
1.43379 12.9229 4.30174 3 
1.43555 15.7966 4.30312 3 
1.43721 12.9211 7.1752 3 
1.43873 15.7958 7.17651 3 
2.87017 14.3583 5.73726 3 
0.00430488 14.3598 5.74341 3 
4.30391 12.9222 4.29994 3 
4.30474 15.7937 4.30024 3 
7.1752 12.9215 4.29953 3 
7.17561 15.7926 4.29937 3 
4.30597 15.7939 7.17219 3 
4.30523 12.9216 7.17185 3 
7.17523 12.9215 7.17102 3 
5.74006 14.3575 5.73548 3 
7.17567 15.7932 7.17089 3 
10.0465 12.9208 4.29986 3 
10.0466 15.7922 4.2992 3 
10.0452 12.9215 7.1718 3 
8.61082 14.357 5.73518 3 
10.0456 15.7933 7.17117 3 
11.4809 14.3572 5.73611 3 
12.9166 12.9201 4.30161 3 
15.7804 12.9211 4.30896 3 
12.9168 15.7927 4.29983 3 
15.7836 15.7973 4.30385 3 
12.9132 12.922 7.17511 3 
15.7763 12.9252 7.18444 3 
12.9143 15.7949 7.17354 3 
14.3479 14.3595 5.74022 3 
15.7805 15.7999 7.18023 3 
18.6094 12.9537 4.34481 3 
18.6673 15.7854 4.30133 3 
18.651 12.9239 7.18242 3 
17.2064 14.3719 5.75572 3 
18.6592 15.7935 7.17833 3 
20.1007 14.3519 5.74418 3 
21.5311 12.9215 4.26229 5 
21.4988 15.8434 4.34486 3 
24.5006 15.8911 4.40338 3 
21.531 12.9216 7.17574 3 
21.5287 15.8018 7.18244 3 
22.977 14.3676 5.77079 3 
24.416 15.8066 7.18795 3 
24.4112 12.9193 7.18246 3 
24.4528 12.8893 4.34491 3 
27.2819 12.922 4.30912 3 
27.2874 15.8087 4.31607 3 
27.286 12.9179 7.18449 3 
25.865 14.3589 5.76708 3 
27.29 15.7998 7.1887 3 
1.43691 18.6678 4.30035 3 
1.44027 18.6708 7.17662 3 
2.87157 17.2314 5.73752 3 
2.872 20.1028 5.73597 3 
0.00790878 17.2389 5.74498 3 
0.00427963 20.1067 5.73781 3 
4.30577 18.6652 4.29966 3 
7.17597 18.6641 4.29912 3 
4.30678 18.6663 7.1721 3 
5.7407 17.2292 5.73539 3 
7.17609 18.6648 7.17063 3 
5.74118 20.1007 5.73495 3 
10.0465 18.6639 4.29894 3 
8.61107 17.2285 5.7348 3 
10.046 18.6647 7.17055 3 
11.4812 17.2289 5.73518 3 
8.61125 20.0999 5.73451 3 
11.4817 20.0999 5.73459 3 
12.9173 18.6642 4.29917 3 
15.7897 18.6629 4.2996 3 
12.9158 18.6657 7.17172 3 
14.3503 17.2309 5.7373 3 
15.7871 18.6655 7.17327 3 
14.3529 20.0998 5.73512 3 
18.6552 18.6692 4.30392 3 
17.2243 17.2283 5.73842 3 
18.6527 18.6722 7.18026 3 
20.0806 17.2463 5.75575 3 
17.2216 20.1025 5.73736 3 
20.093 20.1049 5.7403 3 
21.5314 18.6725 4.30908 3 
24.4182 18.6779 4.31607 3 
21.5273 18.6765 7.18446 3 
22.9683 17.2556 5.76706 3 
22.9692 20.1068 5.74343 3 
24.4092 18.6806 7.18871 3 
27.2824 18.6728 4.3 3 
25.879 17.2695 5.7788 3 
27.2929 18.6834 7.19058 3 
25.8484 20.1103 5.745 3 
1.4368 21.5392 4.29992 3 
1.43464 24.4086 4.2995 3 
1.43788 21.5402 7.17291 3 
2.87125 22.9735 5.73529 3 
1.43528 24.409 7.17123 3 
0.000433512 22.9743 5.73606 3 
4.30625 21.537 4.29935 3 
7.17617 21.5357 4.29898 3 
4.30559 24.408 4.29922 3 
4.30672 21.5376 7.17111 3 
7.17627 21.5362 7.17024 3 
4.30589 24.4082 7.1705 3 
5.74114 22.972 5.73466 3 
7.17601 24.4071 7.17002 3 
7.17596 24.4069 4.29895 3 
10.0466 24.4063 4.29884 3 
10.0467 21.5352 4.29885 3 
10.0464 21.5357 7.17009 3 
8.61134 22.9711 5.73437 3 
10.0464 24.4064 7.16989 3 
11.4821 22.9707 5.73435 3 
12.9179 21.5349 4.29889 3 
15.7884 21.5356 4.29922 3 
12.9175 24.4062 4.2989 3 
15.7887 24.4064 4.29904 3 
12.9171 21.5356 7.17045 3 
15.7869 21.5369 7.17177 3 
14.3527 22.9711 5.73466 3 
15.7879 24.4069 7.17063 3 
12.917 24.4064 7.17012 3 
18.6597 21.5361 4.29993 3 
18.6603 24.4063 4.29933 3 
18.6576 21.5386 7.17358 3 
17.2236 22.9716 5.73524 3 
20.0952 22.972 5.73624 3 
18.6592 24.4073 7.17127 3 
21.5323 21.5363 4.30173 3 
24.4061 21.538 4.30322 3 
24.4032 24.4072 4.30042 3 
21.5317 24.4065 4.30001 3 
21.5304 21.5397 7.17517 3 
21.531 24.4077 7.17187 3 
22.9677 22.9726 5.73731 3 
24.4034 24.4083 7.17228 3 
24.4053 21.5412 7.17653 3 
27.2774 21.5393 4.30044 3 
27.2749 24.4082 4.29987 3 
27.2804 21.5427 7.17665 3 
25.8409 22.974 5.73763 3 
27.2759 24.4091 7.17221 3 
1.43328 27.2786 4.29925 3 
1.43382 27.2786 7.1705 3 
2.8697 25.8435 5.73483 3 
4.30446 27.2784 4.29908 3 
7.1752 27.2777 4.29895 3 
4.30474 27.2784 7.17015 3 
5.74043 25.8428 5.73453 3 
7.17526 27.2776 7.17 3 
10.0459 27.277 4.29893 3 
11.4807 28.7119 5.73468 3 
8.61092 25.842 5.73437 3 
10.0457 27.2769 7.17004 3 
11.4817 25.8416 5.73439 3 
14.352 28.7118 5.735 3 
12.917 27.2768 4.29902 3 
15.7885 27.2771 4.2992 3 
12.9165 27.2767 7.17031 3 
14.3527 25.8417 5.73458 3 
15.7878 27.2769 7.17072 3 
18.6599 27.2774 4.29947 3 
17.224 25.8419 5.73491 3 
18.6593 27.2773 7.17102 3 
20.0954 25.8421 5.73532 3 
21.5311 27.2777 4.29968 3 
24.4023 27.278 4.29965 3 
21.531 27.2777 7.17114 3 
22.967 25.8425 5.73563 3 
24.4027 27.278 7.17109 3 
27.2738 27.2783 4.29946 3 
28.7104 25.8435 5.73519 3 
25.8387 25.8431 5.73562 3 
27.2744 27.2784 7.17087 3 
2.86883 2.872 8.60612 3 
1.43391 1.43641 10.042 3 
2.86923 2.87159 11.4777 3 
2.86918 0.00154307 8.60592 3 
2.86957 0.00140652 11.4774 3 
5.73921 2.87172 8.60591 3 
5.73967 0.00117771 8.60568 3 
4.30433 1.4365 10.0415 3 
7.17443 1.43588 10.0416 3 
5.73932 2.87134 11.4775 3 
5.73981 0.0010183 11.4771 3 
8.60909 2.87081 8.60634 3 
11.4785 2.86907 8.60758 3 
8.6099 0.000351532 8.6058 3 
10.0442 1.43472 10.0423 3 
8.60889 2.87043 11.4781 3 
11.4783 2.86883 11.4797 3 
8.60971 0.000135201 11.4773 3 
14.3486 2.86746 8.60973 3 
12.9144 1.4336 10.0435 3 
15.7863 1.43355 10.0441 3 
14.3496 2.86806 11.4807 3 
17.2215 2.86785 8.61019 3 
20.095 2.86883 8.60968 3 
20.0951 0.000202408 8.60728 3 
18.6589 1.43409 10.0441 3 
17.2223 2.86829 11.4808 3 
20.0952 2.86891 11.4804 3 
22.9678 2.86959 8.60892 3 
22.9671 0.00061837 8.60706 3 
21.5313 1.43467 10.0437 3 
24.4035 1.43522 10.0433 3 
22.9677 2.86957 11.4799 3 
22.9672 0.000295061 11.4785 3 
28.7103 0.00139092 8.60635 3 
28.7108 2.87105 11.4785 3 
28.7105 2.8714 8.6069 3 
25.8397 2.8704 8.60799 3 
27.275 1.43582 10.0427 3 
25.8397 2.87029 11.4793 3 
28.7107 0.00120659 11.4779 3 
25.8389 0.000995537 8.60676 3 
25.8392 0.000766364 11.4782 3 
2.86936 5.74242 8.6069 3 
1.43396 4.30683 10.0427 3 
1.43516 7.177 10.0443 3 
2.86965 5.74207 11.4785 3 
5.73935 5.74264 8.60636 3 
4.30434 4.30697 10.042 3 
4.3049 7.17787 10.0427 3 
7.1741 4.30658 10.0421 3 
7.17434 7.17793 10.0425 3 
5.73945 5.74223 11.4779 3 
8.60884 5.74182 8.60707 3 
11.477 5.73912 8.60974 3 
10.0431 4.30504 10.0436 3 
10.0432 7.1769 10.0442 3 
8.60872 5.74166 11.4786 3 
11.4777 5.74017 11.4807 3 
14.343 5.73342 8.61613 3 
15.7841 4.3014 10.048 3 
12.9117 4.30216 10.0467 3 
12.911 7.17457 10.0479 3 
15.7816 7.17206 10.0504 3 
14.3481 5.73857 11.4825 3 
17.2182 5.73333 8.61689 3 
20.095 5.73526 8.61525 3 
18.6582 4.3022 10.0475 3 
18.657 7.17289 10.0492 3 
17.2214 5.73869 11.4824 3 
20.095 5.73949 11.4817 3 
22.9698 5.73706 8.61348 3 
21.5319 4.30324 10.0466 3 
21.5318 7.17432 10.0479 3 
22.9679 5.74032 11.481 3 
24.4049 7.17561 10.047 3 
24.4046 4.30429 10.0456 3 
28.7107 5.74211 8.60803 3 
25.8418 5.73932 8.61118 3 
28.7108 5.74199 11.4792 3 
27.2759 4.30558 10.0443 3 
27.2756 7.17721 10.0452 3 
25.8399 5.74115 11.4803 3 
2.87035 8.6132 8.60796 3 
2.87115 11.485 8.60882 3 
0.00144022 8.61109 8.61115 3 
1.43641 10.0483 10.0456 3 
2.87038 8.61324 11.4793 3 
2.8711 11.4851 11.4798 3 
0.00363411 11.483 8.61334 3 
0.00034604 11.485 11.481 3 
5.73978 8.61397 8.60676 3 
5.7402 11.4856 8.60701 3 
4.30552 10.0494 10.0433 3 
7.17482 10.0497 10.0427 3 
5.73991 8.61371 11.4783 3 
5.74042 11.4855 11.4785 3 
8.60928 8.61363 8.60733 3 
11.4775 8.61205 8.61014 3 
8.60984 11.4856 8.60721 3 
11.4785 11.4855 8.60955 3 
10.0438 10.0494 10.0441 3 
8.60909 8.61359 11.4788 3 
11.478 8.61289 11.4808 3 
8.60955 11.4857 11.4787 3 
11.4786 11.4858 11.4804 3 
14.3429 8.60865 8.61683 3 
14.3449 11.4855 8.61508 3 
12.9118 10.0487 10.0474 3 
15.7824 10.0475 10.0491 3 
14.3483 8.61188 11.4824 3 
14.3491 11.4855 11.4816 3 
17.2143 8.60471 8.61951 3 
20.0935 8.60726 8.61609 3 
17.2168 11.484 8.61602 3 
20.0923 11.4827 8.61273 3 
18.6561 10.0466 10.0474 3 
17.2208 8.61127 11.482 3 
20.0944 8.61198 11.4809 3 
17.2215 11.4849 11.4809 3 
20.0944 11.4849 11.4796 3 
22.9697 8.60948 8.6146 3 
22.967 11.4857 8.61199 3 
21.5309 10.0479 10.0462 3 
22.9673 8.61276 11.4807 3 
22.9671 11.4857 11.4799 3 
24.4035 10.0492 10.0464 3 
25.84 8.61276 8.6117 3 
25.8432 11.483 8.61452 3 
28.7116 8.61296 11.4803 3 
27.2771 10.048 10.0469 3 
25.8394 8.61339 11.4805 3 
25.8399 11.4855 11.4807 3 
2.87197 14.3577 8.60949 3 
0.00540593 14.3578 8.61503 3 
1.43745 12.9209 10.0465 3 
1.43851 15.7945 10.0473 3 
2.8718 14.3576 11.4802 3 
0.00117483 14.3578 11.4815 3 
5.7407 14.3575 8.60713 3 
4.30611 12.9214 10.0436 3 
7.17528 12.9216 10.0427 3 
4.30675 15.7938 10.0439 3 
7.17575 15.7935 10.0425 3 
5.74096 14.3576 11.4786 3 
8.61029 14.3576 8.60691 3 
11.4792 14.3582 8.6087 3 
10.0444 12.9219 10.0437 3 
10.0449 15.7939 10.0431 3 
8.61007 14.3578 11.4785 3 
11.4793 14.3582 11.4799 3 
14.3466 14.3602 8.61326 3 
12.9129 12.9223 10.0465 3 
15.7839 12.9222 10.0478 3 
12.9139 15.795 10.0455 3 
15.7851 15.7953 10.0468 3 
14.3499 14.3583 11.481 3 
17.219 14.3602 8.61445 3 
20.0951 14.3575 8.61194 3 
18.6574 12.9214 10.0461 3 
18.6586 15.7941 10.0464 3 
17.2222 14.3579 11.4806 3 
20.0951 14.3576 11.4798 3 
22.9699 14.3605 8.61264 3 
21.5311 12.9216 10.0448 3 
21.5313 15.7954 10.0461 3 
22.9678 14.3584 11.4796 3 
24.4061 15.7967 10.0472 3 
24.4048 12.9219 10.0461 3 
25.8454 14.3593 8.61595 3 
27.2783 12.9211 10.0477 3 
27.2798 15.7958 10.049 3 
25.8407 14.3584 11.4808 3 
2.87297 17.2311 8.60998 3 
2.87343 20.1041 8.60956 3 
0.00733893 20.1098 8.61594 3 
0.00739887 17.2345 8.61668 3 
1.43937 18.6686 10.0477 3 
2.87245 17.2303 11.4805 3 
2.87279 20.1029 11.4804 3 
0.00219112 20.1046 11.4822 3 
0.00202945 17.2314 11.4821 3 
5.74127 17.2296 8.60714 3 
5.74165 20.1014 8.60684 3 
4.30731 18.6663 10.0439 3 
7.17616 18.6653 10.0423 3 
5.74143 17.2296 11.4785 3 
5.74174 20.1015 11.4784 3 
8.61073 17.2292 8.60655 3 
11.48 17.2301 8.60771 3 
8.6111 20.1006 8.6061 3 
11.481 20.1008 8.60659 3 
10.0455 18.6654 10.0425 3 
8.61055 17.2296 11.4782 3 
11.48 17.2301 11.4792 3 
8.61096 20.101 11.4778 3 
11.4807 20.1012 11.4784 3 
14.3488 17.2322 8.61092 3 
14.3515 20.1011 8.60775 3 
12.9151 18.6663 10.0441 3 
15.7866 18.666 10.045 3 
14.3507 17.2303 11.4803 3 
14.3514 20.1012 11.4791 3 
17.2222 17.2305 8.61151 3 
20.0924 17.2337 8.61446 3 
17.2204 20.1039 8.61095 3 
20.0923 20.1061 8.61327 3 
18.6573 18.6676 10.0468 3 
17.2228 17.2299 11.4805 3 
20.0948 17.2305 11.4806 3 
17.2222 20.102 11.4802 3 
20.0942 20.1029 11.4809 3 
22.9686 17.2359 8.61596 3 
22.9671 20.1079 8.61502 3 
21.5304 18.6689 10.0477 3 
22.9677 17.2313 11.4808 3 
22.9672 20.1037 11.4815 3 
24.4052 18.6703 10.049 3 
25.8479 17.2385 8.61934 3 
25.844 20.1099 8.61666 3 
27.2806 18.6712 10.0502 3 
25.8414 17.232 11.4818 3 
25.8408 20.1045 11.4821 3 
2.87189 22.9741 8.6075 3 
0.00170876 22.9757 8.60961 3 
1.43589 24.4095 10.0435 3 
1.43871 21.541 10.0465 3 
2.87208 22.9743 11.4795 3 
0.000648066 22.975 11.4804 3 
5.74139 22.9724 8.60619 3 
4.30624 24.4084 10.0422 3 
7.17603 24.4073 10.0415 3 
4.30731 21.5382 10.0434 3 
7.17635 21.5367 10.0419 3 
5.74156 22.9727 11.4779 3 
8.61122 22.9715 8.60571 3 
11.4815 22.9712 8.60584 3 
10.0461 24.4067 10.0414 3 
10.0461 21.5363 10.0418 3 
8.61106 22.9718 11.4773 3 
11.4811 22.9715 11.4776 3 
14.3518 22.9718 8.60662 3 
12.9163 21.5363 10.0425 3 
15.7863 21.5376 10.0441 3 
12.9164 24.4067 10.0418 3 
15.7871 24.4073 10.0426 3 
14.3514 22.972 11.4784 3 
17.2224 22.9728 8.60778 3 
20.0943 22.9736 8.60873 3 
18.6575 21.5389 10.0455 3 
18.6586 24.4079 10.0432 3 
17.2224 22.9728 11.4792 3 
20.0944 22.9735 11.4798 3 
22.9671 22.9744 8.60948 3 
24.4032 24.409 10.0439 3 
22.9669 22.9742 11.4802 3 
21.5302 21.5399 10.0464 3 
21.5307 24.4085 10.0436 3 
24.4039 21.541 10.0472 3 
25.8406 22.9753 8.61 3 
27.2782 21.5418 10.0477 3 
27.2759 24.4096 10.044 3 
25.8398 22.9748 11.4805 3 
2.87018 25.8436 8.6063 3 
1.43437 27.2786 10.0421 3 
2.87053 25.8438 11.478 3 
5.74059 25.8429 8.60577 3 
5.74075 25.843 11.4773 3 
7.17525 27.2776 10.0413 3 
4.30504 27.2783 10.0416 3 
11.4803 28.7116 8.60627 3 
11.4798 28.7113 11.478 3 
8.61083 25.842 8.60558 3 
11.4812 25.8417 8.60573 3 
11.4808 25.8417 11.4774 3 
8.61065 25.8421 11.4771 3 
10.0454 27.2768 10.0415 3 
14.351 28.7111 11.4786 3 
14.3512 28.7113 8.60698 3 
14.352 25.8418 8.60617 3 
14.3515 25.8418 11.4778 3 
15.7872 27.2767 10.0424 3 
12.916 27.2765 10.042 3 
17.223 28.7117 8.6073 3 
17.2233 25.8422 8.60665 3 
20.095 25.8426 8.60699 3 
17.2229 28.7114 11.4787 3 
20.0951 28.7118 11.4787 3 
17.2229 25.8422 11.4782 3 
18.659 27.2771 10.0427 3 
20.0948 25.8427 11.4784 3 
22.9669 25.843 8.60719 3 
21.531 27.2776 10.0427 3 
24.403 27.278 10.0426 3 
22.9669 25.8432 11.4785 3 
28.7111 25.8439 8.60701 3 
28.7113 25.8439 11.4785 3 
25.8391 25.8435 8.60725 3 
27.2749 27.2784 10.0424 3 
25.8392 25.8437 11.4786 3 
1.43416 1.43628 12.9133 3 
2.86925 2.87153 14.3487 3 
2.86968 0.00132635 14.3487 3 
1.43412 1.43634 15.7841 3 
4.30452 1.43627 12.913 3 
7.17438 1.43564 12.9131 3 
5.73933 2.87119 14.3487 3 
5.73983 0.000902936 14.3486 3 
4.30447 1.43624 15.7842 3 
7.17434 1.43559 15.7842 3 
10.0441 1.43461 12.9138 3 
10.0442 1.43479 15.7843 3 
8.60896 2.87049 14.349 3 
11.4791 2.86965 14.3495 3 
8.60962 5.00934e-05 14.3487 3 
12.9148 1.43395 12.9144 3 
15.7867 1.43393 12.9147 3 
12.9151 1.4343 15.7843 3 
15.7869 1.43432 15.7842 3 
14.3506 2.86932 14.3498 3 
18.659 1.43429 12.9146 3 
18.6591 1.43466 15.7842 3 
17.2228 2.86953 14.3498 3 
20.0952 2.86996 14.3496 3 
21.5313 1.43479 12.9144 3 
24.4034 1.43531 12.9141 3 
21.5313 1.43511 15.7841 3 
22.9674 2.87044 14.3494 3 
24.4033 1.43558 15.7841 3 
22.9673 0.000381102 14.3491 3 
27.2751 1.43584 12.9138 3 
25.8392 0.00083084 14.3489 3 
28.7106 2.87137 14.349 3 
27.275 1.43605 15.7841 3 
25.8392 2.87093 14.3492 3 
28.7108 0.00123424 14.3488 3 
1.43398 4.3068 12.9137 3 
1.43436 7.17773 12.9143 3 
2.86933 5.7423 14.349 3 
1.43387 4.30692 15.7841 3 
1.43396 7.17804 15.7841 3 
4.30442 4.30673 12.9134 3 
4.3048 7.17783 12.9138 3 
7.17406 4.30637 12.9135 3 
7.1743 7.17782 12.9137 3 
5.73937 5.74216 14.3489 3 
4.30452 7.17794 15.7841 3 
7.17407 4.30637 15.7842 3 
4.30432 4.30677 15.7842 3 
7.17423 7.17784 15.7842 3 
10.0435 4.30543 12.9145 3 
10.0436 7.17732 12.9147 3 
11.479 5.74111 14.3498 3 
8.60888 5.74179 14.3492 3 
10.0438 4.30573 15.7843 3 
10.044 7.17751 15.7843 3 
12.9139 4.30432 12.9156 3 
15.786 4.30417 12.9159 3 
12.9138 7.17651 12.9159 3 
15.7856 7.17603 12.9161 3 
14.3502 5.74066 14.3501 3 
12.9147 4.30512 15.7843 3 
15.7866 4.3051 15.7843 3 
12.9147 7.17711 15.7843 3 
15.7865 7.17696 15.7843 3 
18.659 4.30545 15.7842 3 
18.6588 4.30461 12.9156 3 
18.6584 7.1764 12.9156 3 
18.6588 7.17724 15.7842 3 
20.095 5.7413 14.3498 3 
17.2226 5.74084 14.35 3 
21.5312 4.30589 15.7841 3 
21.5314 4.30518 12.9153 3 
24.4035 4.30576 12.9149 3 
21.5311 7.17698 12.9152 3 
24.4033 7.17749 12.915 3 
22.9672 5.74174 14.3496 3 
24.4032 4.30633 15.7841 3 
21.531 7.17766 15.7842 3 
24.4029 7.17801 15.7841 3 
28.7104 5.74238 14.3492 3 
27.2751 4.30633 12.9144 3 
27.2749 7.17785 12.9147 3 
27.2748 4.30671 15.7841 3 
27.2746 7.17817 15.7841 3 
25.839 5.74212 14.3494 3 
1.43488 10.0494 12.9148 3 
2.87014 11.4855 14.3494 3 
2.86965 8.61369 14.3492 3 
1.43425 10.0497 15.7841 3 
4.3053 10.0495 12.9141 3 
7.17473 10.0497 12.9138 3 
5.74021 11.4856 14.3491 3 
4.30493 10.0496 15.7842 3 
7.17464 10.0497 15.7842 3 
5.73971 8.61373 14.349 3 
10.044 10.0496 12.9147 3 
11.4792 8.61337 14.3498 3 
8.6092 8.61369 14.3493 3 
11.4797 11.4857 14.3497 3 
10.0444 10.0497 15.7843 3 
8.60965 11.4857 14.3492 3 
12.9143 10.0493 12.9157 3 
15.786 10.0489 12.9156 3 
14.3504 8.61306 14.3501 3 
12.9151 10.0495 15.7843 3 
15.7868 10.0493 15.7843 3 
14.3509 11.4855 14.3499 3 
18.6584 10.0489 12.9149 3 
18.6589 10.0494 15.7842 3 
17.2229 11.4853 14.3495 3 
20.0948 8.61336 14.3495 3 
17.2225 8.613 14.3498 3 
20.0949 11.4855 14.3492 3 
21.5308 10.0494 12.9145 3 
24.403 10.0498 12.9148 3 
21.5309 10.0497 15.7842 3 
24.4028 10.05 15.7841 3 
22.9669 8.61378 14.3494 3 
22.9669 11.4859 14.3492 3 
28.7106 8.61381 14.3494 3 
27.2752 10.0496 12.915 3 
25.8389 11.486 14.3494 3 
27.2747 10.05 15.7841 3 
28.7109 11.4857 14.3495 3 
25.8388 8.614 14.3495 3 
1.43548 12.9215 12.9151 3 
1.43606 15.794 12.9154 3 
2.87062 14.3576 14.3495 3 
1.43465 12.9217 15.7841 3 
1.43512 15.7939 15.7841 3 
4.30587 12.9215 12.9143 3 
7.17523 12.9217 12.9139 3 
4.30639 15.7937 12.9145 3 
7.1757 15.7937 12.9138 3 
5.74071 14.3576 14.3492 3 
4.3059 15.7937 15.7842 3 
4.30542 12.9216 15.7842 3 
7.17515 12.9217 15.7842 3 
7.17565 15.7937 15.7843 3 
10.0445 12.9219 12.9145 3 
10.0451 15.7939 12.9142 3 
11.4802 14.3579 14.3496 3 
8.61014 14.3578 14.3492 3 
10.0448 12.9218 15.7843 3 
10.0453 15.7938 15.7843 3 
12.9148 12.9219 12.9153 3 
15.7866 12.9216 12.9152 3 
12.9154 15.794 12.9149 3 
15.787 15.7938 12.9151 3 
12.9156 12.9217 15.7843 3 
15.7872 12.9215 15.7843 3 
12.916 15.7937 15.7843 3 
15.7875 15.7934 15.7843 3 
14.3514 14.3577 14.3497 3 
18.6588 12.9214 12.9145 3 
18.6592 15.7935 12.9148 3 
17.2233 14.3574 14.3495 3 
20.0953 14.3575 14.3493 3 
18.6592 12.9214 15.7842 3 
18.6594 15.7934 15.7842 3 
21.5311 12.9217 12.9142 3 
21.5313 15.794 12.9145 3 
24.4033 12.922 12.9145 3 
24.4038 15.7945 12.9147 3 
22.9672 14.3579 14.3492 3 
21.5311 12.9217 15.7842 3 
24.403 12.922 15.7841 3 
21.5313 15.7937 15.7842 3 
24.4033 15.794 15.7841 3 
27.2757 12.9218 12.9151 3 
27.2763 15.7944 12.9154 3 
28.7113 14.3579 14.3496 3 
25.8393 14.3581 14.3494 3 
27.275 12.9219 15.7841 3 
27.2754 15.7941 15.7841 3 
1.43658 18.6667 12.9156 3 
1.43553 18.6661 15.7841 3 
2.87112 17.2299 14.3496 3 
2.87142 20.102 14.3496 3 
5.3593e-05 20.1025 14.3499 3 
4.30684 18.6659 12.9145 3 
7.17612 18.6654 12.9136 3 
5.74118 17.2296 14.3492 3 
5.74145 20.1013 14.3491 3 
4.3063 18.6657 15.7842 3 
7.17604 18.6654 15.7843 3 
10.0456 18.6655 12.9138 3 
8.61062 17.2296 14.3491 3 
11.4806 17.2296 14.3493 3 
10.0457 18.6654 15.7843 3 
8.61094 20.1011 14.3489 3 
11.481 20.1009 14.3491 3 
12.9159 18.6655 12.9144 3 
15.7873 18.6654 12.9147 3 
12.9163 18.6653 15.7843 3 
15.7876 18.6651 15.7843 3 
14.3518 20.1008 14.3493 3 
14.3516 17.2295 14.3496 3 
18.6589 18.6657 12.915 3 
20.0953 17.2296 14.3495 3 
18.6593 18.6653 15.7842 3 
20.0949 20.1015 14.3496 3 
17.2231 20.1011 14.3495 3 
17.2234 17.2293 14.3496 3 
21.5311 18.6663 12.9151 3 
24.4038 18.6669 12.9154 3 
22.9672 20.1019 14.3497 3 
21.5312 18.6656 15.7841 3 
24.4034 18.6661 15.7841 3 
22.9674 17.23 14.3494 3 
27.2767 18.6672 12.9159 3 
25.8397 17.2303 14.3496 3 
28.7118 17.2302 14.3498 3 
27.2757 18.6663 15.7841 3 
25.8397 20.1024 14.3498 3 
1.43647 21.5387 12.9153 3 
1.4355 24.4091 12.9143 3 
1.43561 21.5379 15.7841 3 
2.8712 22.9734 14.3493 3 
1.43516 24.4087 15.7841 3 
4.3069 21.5377 12.9143 3 
7.17628 21.5368 12.9134 3 
4.3063 24.4085 12.9137 3 
7.17601 24.4075 12.913 3 
4.30601 24.4082 15.7842 3 
4.30641 21.5373 15.7842 3 
7.17616 21.5367 15.7843 3 
7.1759 24.4074 15.7843 3 
5.74137 22.9726 14.349 3 
10.0458 24.4068 12.913 3 
10.0459 21.5364 12.9133 3 
8.61095 22.9719 14.3487 3 
10.0459 21.5364 15.7843 3 
10.0458 24.4068 15.7843 3 
11.481 22.9716 14.3488 3 
15.7871 24.4072 12.9138 3 
12.9163 21.5364 12.9137 3 
15.787 21.5368 12.9143 3 
12.9161 24.4068 12.9133 3 
14.3516 22.9717 14.3491 3 
12.9164 21.5363 15.7843 3 
15.7874 21.5365 15.7842 3 
12.9161 24.4067 15.7843 3 
15.7872 24.407 15.7843 3 
18.6586 21.5374 12.9148 3 
18.6587 24.4077 12.9141 3 
20.0948 22.9726 14.3494 3 
17.2229 22.9721 14.3493 3 
18.6589 21.5368 15.7842 3 
18.6589 24.4074 15.7842 3 
24.4034 21.5386 12.9154 3 
21.5307 21.538 12.9151 3 
24.4031 24.4087 12.9144 3 
21.5308 24.4082 12.9143 3 
21.531 21.5372 15.7841 3 
21.5309 24.4079 15.7841 3 
24.4032 24.4083 15.7841 3 
24.4033 21.5377 15.7841 3 
22.967 22.9731 14.3495 3 
28.7117 22.9737 14.3495 3 
27.2762 21.539 12.9156 3 
27.2755 24.4091 12.9145 3 
25.8394 22.9735 14.3495 3 
27.2756 21.538 15.7841 3 
27.2754 24.4086 15.7841 3 
1.43458 27.2786 12.9134 3 
1.43456 27.2785 15.7841 3 
2.87041 25.8436 14.3489 3 
7.1752 27.2775 12.9129 3 
4.30524 27.2783 12.913 3 
4.30518 27.2782 15.7842 3 
7.17514 27.2775 15.7843 3 
5.74073 25.843 14.3487 3 
10.0451 27.2767 12.9131 3 
11.4799 28.7114 14.349 3 
10.0451 27.2767 15.7843 3 
11.4806 25.8417 14.3487 3 
8.6105 25.8421 14.3486 3 
14.3511 28.7113 14.3492 3 
15.7871 27.2766 12.9137 3 
12.9157 27.2765 12.9135 3 
12.9157 27.2765 15.7843 3 
15.7871 27.2766 15.7842 3 
14.3514 25.8417 14.3489 3 
17.223 28.7115 14.3492 3 
18.659 27.277 12.9138 3 
20.0951 28.7119 14.3492 3 
17.2229 25.8421 14.349 3 
18.659 27.277 15.7842 3 
20.0949 25.8426 14.3491 3 
24.4032 27.2779 12.9137 3 
21.5311 27.2775 12.9138 3 
22.967 25.843 14.3491 3 
21.5311 27.2775 15.7841 3 
24.4032 27.2779 15.7841 3 
28.7112 25.8437 14.349 3 
27.2751 27.2783 12.9136 3 
27.2752 27.2783 15.7841 3 
25.8392 25.8434 14.3491 3 
1.43408 1.43635 18.6549 3 
2.86919 2.87157 17.2195 3 
2.8696 0.00133662 17.2197 3 