ITEM: TIMESTEP
31044
ITEM: NUMBER OF ATOMS
18
ITEM: BOX BOUNDS pp pp pp
0.0000000000000000e+00 2.8712000000000000e+01
0.0000000000000000e+00 2.8712000000000000e+01
0.0000000000000000e+00 2.8712000000000000e+01
ITEM: ATOMS x y z c_cna 
18.7108 10.1011 1.4281 5 
19.945 11.3354 3.26582 5 
21.5265 9.94708 1.42821 5 
22.9299 11.5228 2.8506 5 
20.7822 12.1726 1.42821 5 
22.9299 11.5227 0.00585213 5 
18.5568 12.9168 1.42814 5 
20.1324 14.3203 2.85054 5 
20.1324 14.3203 0.00582445 5 
22.2802 13.6706 1.42826 5 
24.5055 12.9261 1.42824 5 
21.5357 15.896 1.42821 5 
23.1171 14.5076 3.26579 5 
24.3514 15.7419 1.42827 5 
21.5311 12.9215 4.26229 5 
19.9451 11.3353 28.3025 5 
23.1172 14.5076 28.3026 5 
21.5312 12.9215 27.3061 5 
ITEM: TIMESTEP
31045
ITEM: NUMBER OF ATOMS
18
ITEM: BOX BOUNDS pp pp pp
0.0000000000000000e+00 2.8712000000000000e+01
0.0000000000000000e+00 2.8712000000000000e+01
0.0000000000000000e+00 2.8712000000000000e+01
ITEM: ATOMS x y z c_cna 
18.7108 10.1011 1.4281 5 
19.945 11.3354 3.26582 5 
21.5265 9.94708 1.42821 5 
22.9299 11.5228 2.8506 5 
20.7822 12.1726 1.42821 5 
22.9299 11.5227 0.00585213 5 
18.5568 12.9168 1.42814 5 
20.1324 14.3203 2.85054 5 
20.1324 14.3203 0.00582445 5 
22.2802 13.6706 1.42826 5 
24.5055 12.9261 1.42824 5 
21.5357 15.896 1.42821 5 
23.1171 14.5076 3.26579 5 
24.3514 15.7419 1.42827 5 
21.5311 12.9215 4.26229 5 
19.9451 11.3353 28.3025 5 
23.1172 14.5076 28.3026 5 
21.5312 12.9215 27.3061 5 
