ITEM: TIMESTEP
31000
ITEM: NUMBER OF ATOMS
2001
ITEM: BOX BOUNDS pp pp pp
0.0000000000000000e+00 2.8712000000000000e+01
0.0000000000000000e+00 2.8712000000000000e+01
0.0000000000000000e+00 2.8712000000000000e+01
ITEM: ATOMS x y z 
1.55762 1.46119 1.48495 
2.96395 3.02261 2.75428 
0.180082 2.8903 3.00091 
0.00640515 0.175741 2.97709 
2.81076 2.90592 0.0076641 
0.0187092 2.72039 0.0684317 
4.20726 1.47399 1.35797 
7.04745 1.43076 1.37901 
5.81096 2.88756 2.9028 
5.7731 2.93282 0.0837938 
4.31307 4.08951 1.35803 
5.64775 0.0372106 2.81133 
5.70304 0.0535745 0.0618846 
10.1495 1.42846 1.32771 
8.74687 2.685 2.96816 
11.5311 2.73103 2.959 
11.4331 0.152885 2.73599 
11.5424 0.0605676 0.0521017 
8.55173 2.81693 0.000549784 
8.52275 0.169016 2.76962 
13.0268 1.29165 1.42079 
15.7427 1.62653 1.41773 
14.2871 2.96212 2.96784 
15.793 4.07705 1.38711 
14.2996 2.84868 0.0708938 
18.7454 1.40798 1.43728 
17.1817 2.85262 2.6932 
20.2143 3.12802 2.87732 
20.0324 0.0317443 2.99244 
17.1011 0.13862 2.90716 
17.1699 0.0748555 0.0953197 
21.5888 1.3594 1.52522 
24.4975 1.48083 1.4856 
23.0779 2.84559 2.76777 
23.0131 0.0373116 2.88075 
23.2157 0.111703 0.0771734 
22.9238 2.92761 0.19212 
28.6882 0.117573 0.0335399 
27.3994 1.2679 1.44599 
26.0172 2.782 2.97791 
26.0309 2.73451 0.0762378 
25.8666 0.129152 2.98103 
1.45844 4.45518 1.44316 
1.63312 7.21352 1.34525 
3.01453 5.66344 2.81819 
0.148774 5.79698 3.03078 
2.84653 5.72036 0.0377579 
7.16154 4.16018 1.55851 
4.18784 7.23093 1.45325 
7.2337 7.12766 1.73547 
5.8072 5.72677 2.74947 
5.7554 5.64063 0.0765234 
9.97378 4.33405 1.61559 
10.1465 7.22513 1.41765 
8.69804 5.76973 2.97533 
11.6176 5.77048 2.93584 
8.48866 5.61976 0.21769 
12.7714 4.19702 1.36649 
12.9327 6.99865 1.5513 
15.6989 7.08449 1.48338 
14.4201 5.61274 2.69175 
18.7585 4.46268 1.19871 
18.8061 7.10912 1.33709 
17.1671 5.75076 2.65565 
20.1742 5.88389 2.81702 
24.5594 4.29561 1.64305 
21.5528 4.47881 1.39532 
21.5265 7.27349 1.38028 
23.0166 5.6637 2.89971 
24.4401 7.21894 1.37383 
27.3174 4.20608 1.60721 
27.4591 7.13485 1.42001 
25.9444 5.7406 2.93254 
25.8548 5.68573 0.218547 
28.5987 5.68492 0.0544595 
1.59591 9.88379 1.44274 
2.99662 8.56742 2.80334 
3.01581 11.2406 2.72422 
0.133306 11.1889 2.84417 
0.132038 8.61092 2.97225 
4.37789 10.0077 1.46772 
7.10558 10.0798 1.26183 
5.82271 8.53225 2.89777 
5.77573 11.5262 2.92102 
5.64662 8.5403 0.0980494 
9.76729 9.86605 1.29229 
8.62643 8.53838 2.87183 
11.4671 8.73549 2.7684 
8.71139 11.4626 2.87394 
11.5216 11.4433 2.89118 
11.2514 11.4178 0.296474 
11.6479 8.41574 0.0564323 
12.7299 10.0221 1.3513 
15.7936 10.0772 1.46273 
14.4497 8.60013 2.81193 
14.5009 11.4682 3.04842 
18.8276 10.2303 1.28584 
17.3114 8.70526 2.81431 
20.0818 8.75223 2.83144 
17.1649 11.4598 2.93899 
19.9504 11.4143 3.20168 
21.4095 9.80129 1.38035 
24.3604 10.1263 1.43641 
23.0454 8.68319 2.65824 
22.9842 11.4348 2.93879 
24.5925 10.0894 3.98984 
20.6596 12.0261 1.26352 
27.3176 10.1123 1.29707 
26.0422 8.60183 2.89439 
25.999 11.5339 2.73325 
25.9462 8.63661 0.153508 
1.57942 12.8474 1.34851 
1.52949 15.7993 1.47684 
2.88323 14.1437 2.93743 
3.01858 14.2111 0.0400959 
0.0481839 14.3515 0.158314 
0.099626 14.1561 2.98696 
4.45703 15.6914 1.23095 
4.43368 12.7606 1.50189 
7.16689 12.7501 1.46366 
7.24541 15.7253 1.39591 
5.87951 14.4016 2.81684 
10.0517 13.1524 1.35609 
10.1293 15.6442 1.30703 
8.48941 14.1353 2.8483 
11.4391 14.377 2.78055 
13.174 12.8056 1.56074 
15.8093 12.8132 1.48921 
12.8832 15.6693 1.53151 
15.6763 15.6317 1.2731 
14.4528 14.3235 2.87246 
18.547 12.9426 1.40435 
18.6007 15.6053 1.48338 
17.0444 14.2868 2.81671 
20.0694 14.4108 2.90139 
20.2244 14.4221 0.0386793 
17.1618 14.4064 0.020548 
22.2795 13.4583 1.52366 
24.5072 12.7523 1.51866 
21.7452 15.9255 1.67835 
21.7503 13.0092 4.0966 
23.1592 14.623 3.16067 
24.3424 15.7944 1.52145 
27.41 12.7482 1.4387 
27.1016 15.7366 1.31984 
25.8171 14.2131 2.82889 
1.58504 18.802 1.25846 
3.04863 17.1898 2.76718 
2.97329 20.1409 2.96414 
0.134954 20.1841 2.76707 
2.89617 20.2438 0.0101061 
4.22807 18.7025 1.316 
7.08655 18.7247 1.34624 
5.81388 17.3689 2.69863 
5.65647 20.2209 2.72566 
10.1604 18.5139 1.36663 
8.71575 17.2195 2.85291 
11.4058 17.105 2.8983 
8.62694 19.931 2.86275 
11.5479 20.0679 2.95883 
11.4218 17.1668 0.129079 
8.58893 17.1805 0.0695662 
8.64855 19.9993 0.0170799 
12.9193 18.591 1.38982 
15.6447 18.4432 1.43937 
14.3723 17.0486 2.80142 
14.2464 20.1467 2.86054 
14.164 17.0601 0.117307 
14.333 20.0416 0.0100171 
18.5452 18.6457 1.437 
17.2215 17.1312 2.85845 
20.1472 17.1292 2.80365 
17.2139 20.1454 2.7729 
20.2077 20.0931 2.7054 
20.0197 17.1892 0.204908 
20.1212 19.9226 0.168233 
21.5799 18.6601 1.37286 
24.3053 18.7424 1.49423 
23.0368 17.3355 2.84419 
22.8712 20.1189 2.92381 
28.7067 17.1287 2.89782 
27.309 18.7548 1.6014 
25.8524 17.2536 2.87122 
25.7992 20.3209 2.80404 
28.6448 17.1822 0.152922 
25.8965 20.1354 0.0837555 
1.49945 21.6305 1.4518 
2.72743 23.1386 2.89009 
0.0134421 23.0009 2.89077 
0.0928388 23.0493 0.103951 
4.13932 24.5212 1.42883 
4.26901 21.8011 1.46216 
7.33197 21.5674 1.40552 
5.84192 22.9533 2.9413 
7.02741 24.4719 1.39805 
10.0813 21.3367 1.4475 
8.60516 22.9374 2.66761 
11.5749 22.9142 2.84616 
10.0544 24.3331 4.04107 
9.93364 24.4601 1.45835 
12.8479 21.3574 1.37131 
15.6772 21.3734 1.50151 
14.3296 22.9403 2.79687 
14.2966 22.7348 0.179533 
12.9055 24.4331 1.31473 
15.8494 24.2573 1.47112 
18.5501 21.5242 1.38177 
18.627 24.2165 1.37191 
17.2018 22.8635 2.81104 
20.1049 22.8792 2.88548 
20.1752 22.9587 0.0269823 
21.4592 21.5506 1.49952 
24.3774 21.645 1.57959 
21.3554 24.4236 1.46336 
22.9758 23.0584 3.06483 
22.8335 22.9861 0.0905352 
24.6676 24.4786 1.55125 
27.3743 21.551 1.53098 
25.8122 22.9849 2.9751 
27.3598 24.5473 1.46415 
25.899 22.9882 0.23373 
2.94104 28.6832 2.8838 
1.40733 24.6115 1.4894 
1.37281 27.4035 1.40871 
2.72874 26.0226 2.90321 
0.154605 26.0163 2.82356 
4.25298 27.1936 1.23485 
7.2077 27.1883 1.52685 
5.62653 25.9289 2.799 
9.90654 27.2364 1.42381 
8.68469 26.0063 3.0513 
11.5547 25.8891 2.75313 
8.58446 25.7976 0.0559993 
14.3788 28.6368 2.92126 
12.8865 27.3607 1.5116 
15.8108 27.3405 1.47754 
14.2922 25.836 2.85061 
14.4192 26.0056 0.101814 
18.6152 27.2744 1.45568 
17.345 25.7092 2.92994 
20.0753 25.7738 2.8332 
17.2121 25.8028 0.0463773 
20.3688 28.683 0.0768726 
21.7836 27.2206 1.51014 
22.9455 25.8503 2.95332 
24.5039 27.4705 1.48598 
27.2273 27.3873 1.48033 
26.0573 25.9502 2.82076 
25.7978 25.8405 0.0688634 
1.47292 1.3415 4.319 
1.40263 1.42757 7.23584 
2.81701 2.75279 5.67602 
0.0896774 2.83304 5.77498 
4.13547 1.37916 4.22003 
7.10507 1.4153 4.31461 
4.40911 1.53667 7.12351 
7.1004 1.60719 7.14943 
5.72295 2.87972 5.61452 
5.56634 0.0417597 5.89638 
10.0837 1.49758 4.43338 
10.1698 1.50186 7.12417 
8.50304 2.87069 5.58184 
11.5834 2.85675 5.88388 
8.71606 0.0877778 5.71504 
12.783 1.40239 4.31876 
15.5981 1.50759 4.32477 
13.0473 1.27734 7.07409 
15.7954 1.37906 7.2029 
14.3706 2.89733 5.75045 
14.2909 0.069327 5.67643 
18.6192 1.56526 4.15819 
18.4655 1.36688 7.23316 
17.2182 2.81216 5.61607 
19.9978 2.81282 5.92549 
20.0323 0.116651 5.73553 
17.0335 0.0846927 5.7065 
21.3303 1.57862 4.33216 
24.2689 1.56493 4.32661 
21.4376 1.4055 7.1131 
24.304 1.46688 7.00476 
22.8721 2.86762 5.78601 
22.9113 0.0530039 5.76854 
27.3458 1.45805 4.4534 
28.6873 0.0531536 5.83654 
27.4103 1.43433 7.28262 
25.9375 2.92133 5.76967 
25.7432 0.28508 5.76849 
1.56706 4.31627 4.27157 
1.65652 7.17016 4.30372 
1.40795 4.1877 7.04199 
1.57354 7.1781 6.99781 
2.81077 5.62045 5.78785 
0.00726649 5.72123 5.62908 
4.23408 7.12108 4.35937 
7.10665 4.39747 4.35297 
4.27104 4.30206 4.24268 
7.20344 7.11073 4.37691 
4.27209 7.29435 6.99809 
4.37606 4.29685 6.94577 
7.12252 4.42488 7.14331 
5.72334 5.97819 5.78902 
7.29365 7.12096 7.20592 
10.2103 4.19156 4.27319 
10.1643 7.16667 4.22554 
10.0888 4.2621 7.09791 
8.60813 5.71491 5.72212 
10.0993 7.04099 6.9844 
11.5144 5.78816 5.81181 
15.8121 4.3576 4.30656 
13.1226 4.23661 4.37014 
12.9431 7.1926 4.3684 
15.8472 7.17701 4.16387 
12.9811 4.39274 7.16859 
15.7136 4.22675 7.17066 
13.0089 7.25886 7.07074 
14.3006 5.77106 5.6068 
15.8279 7.10236 7.14548 
18.7487 4.37405 4.37607 
18.7225 7.07995 4.29188 
18.6837 4.39143 7.25753 
17.2129 5.75882 5.66078 
18.5755 7.18465 7.22472 
20.1157 5.82437 5.95395 
24.3917 4.32406 4.33704 
21.4246 4.49812 4.41387 
21.5906 7.10253 4.18584 
24.4256 7.17083 4.14469 
24.4636 4.29067 7.10222 
21.4582 4.2895 7.16187 
21.5307 7.32449 7.08779 
23.1615 5.81269 5.93033 
24.5597 7.07399 7.24273 
27.3923 4.38282 4.33922 
27.3937 7.22973 4.40074 
27.3025 4.25042 7.07806 
25.9801 5.61995 5.75097 
27.3257 7.11303 7.08325 
1.66592 9.99937 4.21038 
1.619 9.94143 7.24694 
2.90399 8.78944 5.6937 
2.97722 11.4009 5.75343 
0.176567 8.74095 5.83363 
0.184495 11.5253 5.91502 
4.4715 10.0184 4.31102 
7.27397 10.1099 4.17693 
4.38124 10.02 7.15519 
5.86389 8.55364 5.71554 
7.1083 9.96959 7.11417 
5.96078 11.4328 5.69324 
10.0123 9.93677 4.21707 
8.65413 8.57847 5.59805 
10.097 9.98802 7.08265 
11.4556 8.66921 5.6604 
8.69921 11.4201 5.63805 
11.2746 11.4142 5.65585 
12.9519 10.0662 4.23421 
15.8379 10.0324 4.36993 
12.9969 10.0654 7.15929 
14.3682 8.58873 5.65498 
15.894 10.0266 7.14691 
14.3922 11.5786 5.75653 
18.652 10.0297 4.43714 
17.411 8.60166 5.7875 
18.7759 10.1074 7.24815 
20.0738 8.48782 5.79727 
17.3769 11.4888 5.78863 
20.3731 11.5106 5.70575 
21.6025 9.91269 4.33831 
21.5509 10.0839 7.0444 
23.115 8.52819 5.56699 
23.1147 11.6385 5.65021 
24.2898 10.0001 7.19019 
27.4572 9.93635 4.50366 
25.7417 8.72274 5.5755 
27.5125 10.019 7.2792 
25.9457 11.4308 5.69996 
1.5874 12.7784 4.26091 
1.43405 15.5921 4.42529 
1.60415 12.9208 7.11294 
1.52507 15.7657 7.04549 
3.02339 14.2922 5.62358 
0.0283233 14.3505 5.74809 
4.5952 12.9077 4.27882 
4.39652 15.6618 4.21029 
7.22006 12.7607 4.3128 
7.18328 15.811 4.17888 
4.42396 15.7105 7.10012 
4.52127 12.9956 7.14018 
7.35028 12.7443 7.2016 
5.83622 14.4216 5.74439 
7.32644 15.7157 7.11169 
10.0932 12.8704 4.12776 
9.99959 15.5157 4.34238 
9.99015 12.914 7.09941 
8.56491 14.1905 5.68348 
10.0489 15.6138 6.92922 
11.4777 14.3968 5.76522 
12.9305 12.7806 4.16076 
15.7546 12.953 4.43655 
12.9032 15.8073 4.1788 
15.8334 15.7873 4.36893 
12.9692 12.9679 7.32887 
15.6779 12.8453 7.27419 
12.932 15.7927 7.17498 
14.3532 14.3388 5.67796 
15.875 15.8185 7.02325 
18.6303 13.012 4.36066 
18.6527 15.7499 4.45354 
18.7849 12.8405 7.24555 
17.283 14.3478 5.85928 
18.4792 15.7388 7.16475 
20.1482 14.3046 5.85897 
21.492 15.9188 4.3864 
24.5158 15.9225 4.32795 
21.7982 13.1665 7.16387 
21.5974 15.761 7.0405 
23.2021 14.4589 5.63728 
24.3404 15.9342 7.22967 
24.5616 13.0042 7.11002 
24.6457 12.8772 4.32671 
27.3848 12.8595 4.40778 
27.3832 15.73 4.15599 
27.4037 12.9482 7.0844 
25.9334 14.4487 5.82389 
27.3042 15.819 7.3069 
1.47094 18.71 4.15913 
1.63516 18.7366 7.03011 
2.84522 17.2216 5.54469 
3.05426 20.2476 5.61762 
0.161676 17.1514 5.63315 
4.52957 18.5991 4.34068 
7.25908 18.639 4.24919 
4.46178 18.8557 6.98158 
5.75287 17.2876 5.67239 
7.20088 18.6378 7.07132 
5.87913 20.3494 5.63194 
10.0541 18.7082 4.16424 
8.67544 17.2424 5.53527 
10.1221 18.4097 7.08515 
11.3085 17.0068 5.57716 
8.74691 20.2384 5.58939 
11.4093 20.1636 5.64354 
12.7485 18.6188 4.27521 
15.5214 18.7181 4.40286 
12.7592 18.6295 7.08936 
14.2934 17.1548 5.89048 
15.7636 18.6921 7.15408 
14.2341 20.1519 5.78723 
18.7459 18.6652 4.32536 
17.3185 17.4512 5.68662 
18.6257 18.5447 7.43804 
19.9781 17.2017 5.71795 
17.1899 20.0249 5.67629 
19.9762 19.8723 5.61978 
21.4373 18.5422 4.1718 
24.4272 18.5926 4.25861 
21.4722 18.5488 7.18731 
23.0303 17.3645 5.80681 
22.663 20.0699 5.72835 
24.3427 18.6753 7.07193 
27.2125 18.6359 4.1617 
28.7106 20.041 5.59487 
25.907 17.2828 5.82902 
27.418 18.6942 7.0461 
25.944 20.0506 5.61294 
1.32208 21.4478 4.35386 
1.4134 24.494 4.34273 
1.43996 21.4755 7.07781 
2.84252 23.0066 5.68456 
1.55942 24.461 6.96818 
4.25149 21.6444 4.19972 
7.23104 21.6477 4.19481 
4.13089 24.4793 4.32589 
4.46571 21.5578 7.12151 
7.4274 21.3667 7.40734 
4.39001 24.3834 7.27493 
5.71077 23.2858 5.72389 
7.33712 24.3983 7.33211 
10.1345 21.5453 4.1378 
10.2026 21.5427 7.07777 
8.65611 22.9053 5.73029 
10.1561 24.4541 7.09707 
11.522 22.9294 5.54289 
12.8628 21.638 4.14377 
15.8026 21.5399 4.30814 
12.9201 24.4924 4.25856 
15.8045 24.4849 4.35465 
12.9888 21.6308 7.19219 
15.7811 21.5676 7.12279 
14.3182 23.0143 5.59153 
15.6875 24.4008 7.22954 
12.8543 24.4359 7.21439 
18.6093 21.5185 4.2675 
18.5695 24.3055 4.28146 
18.5606 21.4446 7.31717 
17.3526 22.9542 5.78419 
19.8903 22.7939 5.80941 
18.5171 24.3476 7.1154 
21.3655 21.5814 4.29348 
24.1828 21.4592 4.38905 
24.2931 24.4311 4.45073 
21.3363 24.2904 4.36262 
21.3738 21.6841 7.15733 
21.5368 24.25 7.21856 
23.002 22.9153 5.82187 
24.4461 24.4339 7.22328 
24.2639 21.3948 7.29957 
27.303 21.7475 4.32876 
27.2192 24.4337 4.3099 
28.5075 23.0384 5.73219 
27.2085 21.7068 7.2279 
25.7093 22.9084 5.92833 
27.1608 24.4452 7.25422 
1.3735 27.301 4.3331 
2.93916 28.5804 5.93461 
1.50263 27.1733 7.09356 
2.91813 25.9621 5.78974 
7.06901 24.6253 4.27592 
4.33361 27.3258 4.47071 
7.03937 27.484 4.38789 
4.33328 27.2923 7.2953 
5.68502 25.8012 5.74085 
7.19225 27.3245 7.06604 
10.0554 27.4418 4.39622 
11.4961 28.6886 5.81394 
8.52131 25.8655 5.84981 
10.019 27.3621 7.24741 
11.499 25.7705 5.58594 
12.948 27.2039 4.31861 
15.7004 27.3909 4.34819 
12.8293 27.3478 7.16253 
14.3799 25.8683 5.70638 
15.7226 27.3709 7.16343 
18.578 27.4438 4.25725 
17.2592 25.9587 5.74436 
18.5766 27.2313 7.04405 
19.9511 25.8864 5.72485 
21.3305 27.2949 4.36892 
24.2075 27.3173 4.43537 
21.3716 27.389 7.18129 
23.1801 25.8281 5.78807 
24.34 27.3087 7.38106 
27.1587 27.2973 4.2887 
28.6938 25.8315 5.7944 
25.8833 25.92 5.73363 
27.1824 27.458 7.15737 
2.88321 2.67349 8.48089 
0.238722 0.0559261 8.63018 
1.56116 1.3857 9.99904 
3.04603 2.7572 11.3708 
0.229699 2.81773 11.5637 
5.74145 2.77059 8.74728 
5.92251 0.0687641 8.5155 
4.47279 1.27393 10.0927 
7.28813 1.41799 10.0524 
5.71428 2.83609 11.5558 
5.73878 0.1013 11.6176 
8.53134 2.94224 8.56464 
11.5211 2.94025 8.44828 
8.75517 0.121449 8.55673 
11.4637 0.150693 8.65241 
10.0467 1.52041 10.0562 
8.8373 2.77103 11.5097 
11.5804 2.94423 11.4808 
11.356 0.182488 11.4247 
14.3858 2.77333 8.62041 
14.3206 0.153979 11.4611 
13.0076 1.54708 9.92325 
15.817 1.49532 10.008 
14.3402 2.90977 11.6675 
17.2264 2.93829 8.58196 
20.2414 2.86332 8.54861 
19.9803 0.197475 8.83576 
18.6328 1.66036 10.14 
17.1696 2.92473 11.7622 
20.1171 3.09886 11.5271 
23.1129 3.02552 8.52396 
22.9312 0.0294474 8.71161 
21.5223 1.55981 10.0953 
24.5121 1.48626 10.0784 
22.9705 2.91038 11.5853 
28.6935 2.89074 8.72121 
25.9231 2.85608 8.5738 
27.432 1.31334 10.0587 
25.9215 2.88946 11.5522 
2.8249 5.72903 8.54731 
1.45705 4.38873 10.0552 
1.38973 7.13612 10.0112 
2.78903 5.90528 11.5626 
5.71617 5.78811 8.63518 
4.36337 4.32677 9.93547 
4.17448 6.99388 10.0261 
6.97849 4.35538 10.085 
7.2475 7.22846 10.0205 
5.69991 5.86623 11.4763 
8.8709 5.68271 8.65167 
11.4565 5.69629 8.65517 
10.1222 4.26461 10.1465 
10.1516 7.28169 9.98267 
8.66051 5.65081 11.1822 
11.5789 5.62585 11.4114 
14.402 5.70443 8.62744 
15.7431 4.30172 10.0591 
12.9044 4.27995 9.90115 
13.0715 7.25945 9.87627 
15.8248 7.09231 10.1341 
14.3933 5.55584 11.5754 
17.2765 5.55601 8.61986 
20.2212 5.89862 8.6809 
18.7622 4.53958 9.98522 
18.6628 7.22165 10.1741 
17.1392 5.54953 11.5559 
20.2091 5.84524 11.6938 
22.983 5.71844 8.53331 
21.5309 4.21541 10.1096 
21.6324 7.44657 10.1271 
23.0545 5.86316 11.4547 
24.3842 7.3786 10.0325 
24.4863 4.44504 10.1164 
28.5122 5.62329 8.60976 
25.8883 5.6499 8.80959 
28.6041 5.66911 11.592 
27.268 4.27862 10.0475 
27.1408 7.16182 10.0288 
25.6795 5.97655 11.4324 
2.98896 8.50877 8.58666 
3.04135 11.6204 8.45516 
0.156073 8.5783 8.63115 
1.43447 10.2501 9.93681 
2.97385 8.74169 11.4404 
2.74533 11.5397 11.4459 
5.68388 8.69747 8.71241 
5.96959 11.4827 8.69176 
4.36211 10.2583 10.0423 
7.2997 9.91896 10.0821 
5.88095 8.62768 11.6314 
5.73881 11.6038 11.3323 
8.66408 8.54325 8.49812 
11.5587 8.39321 8.53244 
8.63225 11.3467 8.58219 
11.6072 11.327 8.50049 
10.0274 9.88135 10.012 
8.7493 8.61049 11.5009 
11.6996 8.64672 11.3094 
8.74244 11.4035 11.2857 
11.5047 11.4412 11.2799 
14.4682 8.60271 8.521 
14.4411 11.4964 8.72516 
12.9648 9.92693 9.98561 
16.0517 10.0439 10.0794 
14.4549 8.57729 11.494 
14.434 11.3767 11.4209 
17.2529 8.50263 8.60213 
20.1593 8.75369 8.5702 
17.1477 11.5825 8.54968 
20.3988 11.5881 8.38916 
18.6206 10.2592 9.95817 
17.2345 8.56769 11.5255 
19.9285 8.76757 11.4502 
17.0137 11.6676 11.628 
20.1449 11.4563 11.5674 
23.0114 8.63731 8.53405 
22.9521 11.6005 8.63113 
21.4149 10.0247 9.93583 
23.0424 8.94694 11.3489 
22.9369 11.4522 11.3527 
24.5661 10.1404 9.89536 
28.7037 11.5359 8.55736 
26.0082 8.6003 8.5526 
25.7783 11.4704 8.4604 
28.6697 8.48008 11.2624 
28.6594 11.3421 11.2473 
27.2701 10.0123 9.85484 
25.7698 8.67661 11.5413 
25.9465 11.5959 11.2913 
3.05756 14.3366 8.45534 
0.0312846 14.416 8.52592 
1.37271 12.9058 10.0594 
1.75294 15.7846 9.88344 
2.87278 14.4601 11.4664 
0.000557621 14.3178 11.3449 
5.85499 14.5477 8.70424 
4.1972 12.9143 10.0693 
7.20757 12.9729 10.0207 
4.34558 15.8389 9.96714 
7.19743 16.059 10.0518 
5.69469 14.3232 11.3868 
8.7718 14.3481 8.57254 
11.5407 14.2489 8.55656 
9.96803 12.9218 9.83824 
10.0614 15.9189 9.9792 
8.62656 14.3911 11.5311 
11.5014 14.4274 11.3252 
14.4139 14.4524 8.58782 
12.9845 12.9552 9.9923 
15.8384 12.8766 10.1425 
13.0498 15.716 10.1729 
15.7673 15.7103 10.0832 
14.4275 14.2808 11.5631 
17.1911 14.1825 8.4834 
20.0231 14.4125 8.716 
18.7392 12.8426 10.1156 
18.4342 15.5858 10.1744 
17.2469 14.1899 11.5785 
20.0872 14.2088 11.5476 
23.0144 14.6024 8.58465 
21.5124 12.9713 9.97722 
21.6168 15.9333 9.96904 
22.8957 14.4401 11.2182 
24.3666 15.8081 9.88695 
24.4124 12.8252 10.0035 
25.833 14.3714 8.3971 
27.4418 12.9512 9.8599 
27.2613 15.8816 10.0541 
25.7822 14.36 11.2304 
3.13839 17.2833 8.30617 
2.94061 20.1426 8.53601 
0.0151934 20.1878 8.54513 
0.0856262 17.3888 8.4504 
1.41093 18.6286 10.1042 
2.70444 17.2973 11.4955 
2.60904 20.2232 11.4885 
5.78268 17.3459 8.36978 
5.74894 20.0679 8.70861 
4.15917 18.8122 10.0874 
7.34083 18.7164 9.96954 
5.71312 17.2579 11.4722 
5.658 20.1521 11.5333 
8.68561 17.0826 8.46107 
11.5063 17.1362 8.60069 
8.79409 20.0394 8.62727 
11.403 19.9691 8.60353 
10.0769 18.7234 10.1048 
8.68861 17.3353 11.3566 
11.6009 17.1237 11.5884 
8.60539 20.2305 11.5068 
11.5757 20.0093 11.4928 
14.3542 17.1897 8.68038 
14.3724 19.9726 8.41016 
12.9587 18.7696 10.0116 
15.763 18.5306 10.1029 
14.4141 17.1414 11.47 
14.3463 20.0872 11.4909 
17.1573 17.1375 8.70367 
19.9943 17.16 8.61318 
17.1585 19.9697 8.76086 
19.9979 20.0881 8.55714 
18.7209 18.561 10.1555 
17.1898 17.267 11.495 
19.8951 16.9743 11.5352 
17.1975 20.066 11.5542 
19.9982 20.0433 11.5017 
22.9041 17.3596 8.56962 
22.7887 20.0628 8.62476 
21.4352 18.5584 10.1215 
22.8333 17.2718 11.5017 
22.9318 20.3267 11.5203 
24.2693 18.6087 9.95427 
25.9161 17.258 8.49858 
25.9158 20.0779 8.58056 
28.5348 20.2784 11.5326 
28.5994 17.1961 11.4415 
27.2818 18.7133 9.98218 
25.6884 17.422 11.3592 
25.7369 19.9994 11.3265 
2.93053 23.0763 8.43648 
0.263941 23.1598 8.53378 
1.61286 24.2916 10.0269 
1.38074 21.6486 9.87006 
2.89918 22.8285 11.3807 
0.0411317 23.0381 11.4463 
5.91349 22.9 8.46884 
4.4708 24.4095 9.99455 
7.24763 24.3224 10.0412 
4.24142 21.5768 9.88349 
7.1322 21.5092 10.2299 
5.64801 22.9627 11.4785 
8.74234 22.9421 8.6401 
11.5695 22.9688 8.78853 
10.0465 24.516 10.0396 
9.90906 21.4591 9.95016 
8.85669 22.9612 11.7453 
11.4767 22.8299 11.4226 
14.5053 23.0348 8.71205 
13.1386 21.3816 10.0843 
15.7091 21.4753 10.0449 
13.0008 24.3487 9.94742 
15.8838 24.4999 10.2323 
14.478 22.8586 11.315 
17.304 23.0168 8.62934 
20.0499 23.0651 8.5779 
18.6491 21.4511 9.94915 
18.4975 24.2742 10.1995 
17.0843 22.7661 11.4647 
19.9923 22.8483 11.4818 
22.9388 23.0091 8.61415 
24.3753 24.3888 9.96845 
22.8504 23.0523 11.5168 
21.3564 21.566 10.0349 
21.2949 24.307 10.0239 
24.2588 21.6419 10.0973 
25.7646 23.0174 8.75759 
27.2264 21.5817 10.1137 
27.3384 24.2735 9.92679 
25.8292 23.0227 11.4478 
3.01149 28.6483 8.65695 
2.852 25.8222 8.47714 
0.152796 25.9318 8.67607 
2.94882 28.6542 11.3507 
0.208566 28.5798 11.4645 
1.60249 27.1566 9.9832 
2.92212 25.7334 11.2945 
0.147092 25.6149 11.5135 
5.78291 25.9027 8.63202 
5.84633 25.8345 11.6842 
7.13279 27.2709 10.1724 
4.4588 27.3455 10.0656 
8.54231 25.9503 8.67747 
11.4937 25.9544 8.6518 
11.6569 25.8216 11.2859 
8.84091 25.7747 11.4557 
8.67844 28.6693 11.4072 
10.1084 27.2905 10.0453 
14.3176 28.6685 8.70097 
14.4153 25.9525 8.68626 
14.3402 25.7582 11.599 
15.7225 27.4704 9.84423 
12.9469 27.4202 9.98895 
17.2096 28.6903 8.63311 
17.2419 25.8187 8.58019 
20.1616 25.9131 8.57953 
17.1429 28.6697 11.4023 
20.055 28.685 11.5286 
17.0706 26.1312 11.5794 
18.603 27.3148 10.0698 
19.9848 25.8801 11.4208 
22.8173 25.9189 8.70997 
22.9545 28.6711 11.62 
21.4562 27.3388 10.2277 
24.3021 27.2646 10.1283 
22.9829 25.7528 11.5341 
25.8583 28.6969 8.70683 
25.7369 25.8911 8.62265 
25.8453 28.6691 11.5447 
27.3705 27.2281 10.1494 
25.8811 25.7913 11.4635 
1.54802 1.44713 12.8017 
2.87939 2.99822 14.326 
2.83276 0.00899643 14.2878 
1.26974 1.58 15.7314 
4.33076 1.47157 12.9592 
7.26923 1.38675 12.8829 
5.76955 3.0384 14.1403 
5.56306 0.0241953 14.2646 
4.30629 1.4873 15.7112 
7.0489 1.4169 15.7517 
10.0862 1.49241 12.9901 
10.1172 1.2061 15.7568 
8.68595 2.90942 14.4339 
11.7279 3.00929 14.3621 
8.47997 0.04926 14.4065 
12.9073 1.50428 12.8654 
15.8765 1.43545 12.8971 
12.8146 1.53778 15.991 
15.73 1.36884 15.8672 
14.276 2.8495 14.499 
14.175 0.135395 14.3749 
18.8095 1.56241 12.9092 
17.2591 0.0649218 14.3171 
18.5112 1.37698 15.8047 
18.624 4.06396 15.7121 
17.0515 2.80271 14.577 
20.0552 2.85858 14.4212 
21.4675 1.49969 12.7976 
24.3374 1.4333 13.045 
21.5998 1.27591 15.8627 
22.9058 2.6465 14.4458 
24.4353 1.41326 15.8083 
21.5484 4.09057 16.0038 
27.5277 1.39236 12.8514 
25.7455 0.00628459 14.3471 
28.6155 2.91808 14.355 
27.2908 1.40897 15.852 
25.9595 2.82753 14.3699 
1.52529 4.30722 13.1701 
1.43603 7.41474 12.969 
0.1247 5.87264 14.2685 
3.07036 5.50967 14.2335 
1.28554 4.17443 15.8383 
1.45477 7.41816 15.6321 
4.26948 4.26151 12.746 
4.28484 7.23472 12.8707 
7.25288 4.26668 12.7587 
7.24602 7.10273 12.9431 
5.72637 5.72316 14.3069 
4.18201 7.33176 15.7792 
7.2778 4.13735 15.7684 
4.44406 4.33954 15.6626 
7.16427 6.93969 15.9345 
9.88748 4.23507 12.887 
10.0625 7.14552 12.7772 
11.4969 5.75046 14.3376 
8.92336 5.81519 14.2366 
10.4119 4.29828 15.6984 
10.1363 7.28446 15.754 
12.8023 4.34029 12.7134 
15.9023 4.22754 13.0698 
12.8339 7.0573 12.7882 
15.886 7.14233 13.0347 
14.4052 5.66681 14.3431 
13.006 4.57022 15.8114 
15.7116 4.33469 15.852 
13.0233 7.12645 15.9313 
15.7299 7.00711 15.8076 
18.6177 4.39673 13.1493 
18.6162 7.03611 12.9664 
18.6083 7.2197 15.775 
20.1703 5.65575 14.5309 
17.2547 5.69367 14.4628 
21.4806 4.47629 13.0002 
24.3804 4.28347 12.9008 
21.7857 7.47058 12.8239 
24.4541 7.15135 13.1065 
22.8809 5.70351 14.3514 
24.3494 4.22423 15.6505 
21.5584 7.16695 15.7586 
24.3897 7.14751 15.8129 
27.2645 4.43793 12.9962 
27.2745 7.20995 12.9353 
27.4408 4.4424 15.74 
27.2731 7.32117 15.6026 
25.7607 5.7392 14.4019 
1.37936 10.0727 12.8086 
2.84668 11.6965 14.21 
2.9691 8.82894 14.3533 
1.41489 10.1979 15.8626 
4.21085 10.1283 12.9785 
7.36353 9.93559 12.8863 
5.72905 11.589 14.2816 
4.39438 10.2913 15.7114 
7.11743 10.0991 15.8185 
5.88219 8.41772 14.4804 
10.1313 9.87329 12.9508 
11.6308 8.48885 14.2506 
8.55716 8.38478 14.3308 
11.4222 11.4248 14.3039 
9.88079 9.82755 15.9365 
8.64535 11.5969 14.5081 
13.0158 9.9819 12.9759 
15.6786 10.0567 13.0146 
14.205 8.34343 14.2451 
12.9168 9.91836 15.4854 
15.7352 9.87717 15.8315 
14.3934 11.4972 14.4524 
18.5543 10.2744 12.9353 
18.4143 10.1128 15.6802 
16.9519 11.4294 14.3992 
19.9636 8.5199 14.4127 
17.2407 8.52757 14.3769 
20.0963 11.3762 14.5963 
21.6436 10.0693 13.1412 
24.5192 10.0904 12.7201 
21.5563 10.0154 15.777 
24.1991 10.1592 15.9304 
23.0734 8.64395 14.5292 
23.0684 11.5224 14.5097 
28.6354 8.76269 14.3443 
27.2496 10.0382 12.6773 
25.9041 11.5498 14.2637 
27.2232 9.97284 15.7728 
28.5969 11.5164 14.4636 
25.6758 8.72032 14.4605 
1.22673 12.9517 12.8589 
1.18661 15.7554 12.7841 
2.77639 14.7171 14.2609 
1.47966 13.1406 15.6577 
1.37222 15.7179 15.7962 
4.33491 12.8859 12.795 
7.30703 12.8084 12.8896 
4.15905 16.082 12.9163 
7.37645 15.7937 12.6777 
5.8308 14.5131 14.2549 
4.38918 15.9111 15.7525 
4.34051 13.0984 15.6048 
7.16701 13.0586 15.9004 
7.24557 16.0908 15.7394 
10.1385 12.8544 12.7525 
9.97507 15.7686 12.9048 
11.3537 14.2932 14.3257 
8.55728 14.4246 14.3369 
10.1569 12.9763 15.9072 
10.13 15.8443 15.7998 
12.8645 12.7829 12.9392 
15.6172 12.9182 13.0857 
12.9231 15.8623 13.062 
15.7087 15.7868 13.0202 
13.0915 12.9286 15.6583 
15.8756 12.8015 15.9073 
12.8091 15.8867 15.7099 
15.8744 15.5882 15.8405 
14.4255 14.4345 14.4184 
18.5501 12.8217 12.9115 
18.6331 15.6403 13.0811 
17.1894 14.2107 14.2731 
20.1771 14.0392 14.2357 
18.6391 12.8284 15.7337 
18.6988 15.7213 15.863 
21.6874 12.7721 12.7575 
21.455 15.7655 12.7903 
24.4473 13.0461 12.6762 
24.2438 15.933 12.7846 
22.9915 14.1443 14.3509 
21.4909 12.9053 15.8543 
24.5093 12.8086 15.9419 
21.329 15.819 15.7596 
24.2652 15.7756 15.5465 
27.3767 12.82 12.7631 
27.0539 15.7705 12.6437 
28.3952 14.3744 14.2218 
25.5617 14.2936 14.3542 
27.3118 12.8759 15.9003 
27.0088 15.8309 15.7206 
1.34732 18.6836 13.0479 
1.29225 18.65 15.6281 
2.95027 17.3338 14.44 
2.73349 20.3077 14.3954 
4.23889 18.8961 12.7973 
7.36469 18.7054 12.8549 
5.81365 17.4075 14.2231 
5.65058 20.133 14.3183 
4.42036 18.7029 15.7814 
7.15267 18.8922 15.7947 
10.0882 18.6366 12.8963 
8.65668 17.3053 14.2916 
11.3738 17.2593 14.3551 
9.97322 18.8301 15.9649 
8.699 20.0395 14.3805 
11.5277 19.9596 14.3574 
13.176 18.6894 12.9868 
15.7512 18.6564 12.8699 
12.8399 18.5011 15.8401 
15.8433 18.6088 15.8756 
14.2655 19.9483 14.4355 
14.3951 17.0989 14.3896 
18.589 18.6596 12.9057 
20.1036 17.2425 14.3133 
18.5341 18.6483 15.7264 
20.0159 20.1889 14.442 
17.2079 20.1654 14.4449 
17.248 17.1947 14.4646 
21.3703 18.6477 13.0151 
24.3287 18.6651 12.9963 
22.8642 20.084 14.2236 
21.6093 18.7731 15.8677 
24.3713 18.7771 15.8916 
22.6544 17.2463 14.4197 
28.5992 20.1602 14.2296 
27.1407 18.5793 12.9803 
25.6693 17.165 14.2966 
28.5904 17.132 14.3554 
27.2461 18.4846 15.6696 
25.6565 20.097 14.4401 
1.31606 21.8006 12.9216 
1.52504 24.4205 12.8891 
1.4746 21.5826 15.9381 
2.84023 23.0519 14.4159 
0.0528866 22.8741 14.4316 
4.16185 21.6464 12.9055 
7.24104 21.3426 12.983 
4.19686 24.3736 12.8984 
7.32146 24.2957 13.0024 
4.48737 24.4573 15.8337 
4.19034 21.6625 15.7754 
7.26608 21.6954 15.6071 
7.23733 24.3373 15.6914 
5.7014 22.8324 14.3679 
10.2805 24.5714 12.8643 
10.1233 21.1649 12.9153 
8.8076 22.9035 14.1951 
9.95778 21.5349 15.7111 
9.97609 24.4434 15.8101 
11.5576 22.9114 14.4446 
15.6776 24.4226 12.8667 
12.9815 21.5174 12.8599 
15.6887 21.5755 13.0126 
12.9054 24.3637 12.8575 
14.2912 22.9053 14.283 
12.8647 21.3569 15.7098 
15.7046 21.5054 15.8538 
12.8531 24.2996 15.8732 
15.6479 24.2245 15.7577 
18.5323 21.4229 12.9571 
18.6096 24.5101 12.6772 
19.9155 22.9429 14.2867 
17.2276 23.1227 14.3089 
18.5729 21.7384 15.9328 
18.5027 24.4892 15.7329 
24.4827 21.5084 12.919 
21.4063 21.5011 13.0746 
24.4505 24.4976 12.8705 
21.2566 24.3352 12.8251 
21.3583 21.7227 15.8376 
21.4426 24.2383 15.6843 
24.3666 24.1801 15.8163 
24.478 21.5735 15.7559 
23.0243 22.9416 14.3656 
27.0977 21.5027 12.9871 
27.3217 24.3788 12.8813 
25.9287 22.9737 14.3181 
27.3858 21.5022 15.9608 
27.3269 24.2898 15.7507 
1.53054 27.2899 12.9015 
1.50751 24.6107 15.8061 
1.55708 27.4472 15.8336 
2.98808 25.8431 14.6126 
0.080617 25.9283 14.4608 
7.16061 27.0993 13.1147 
4.23031 27.1053 13.0049 
4.34859 27.3173 15.7856 
7.05372 27.1483 15.8612 
5.71934 25.7446 14.3902 
9.91718 27.4034 12.9219 
11.5317 28.6858 14.3717 
9.97164 27.4645 15.8919 
11.3353 26.0035 14.3714 
8.64868 25.859 14.4168 
15.5708 27.4025 12.95 
12.8597 27.3691 12.7987 
12.8001 27.2609 15.7716 
15.5649 27.3004 15.8374 
14.0786 25.8628 14.3874 
18.5648 27.4805 12.9263 
20.2074 28.6204 14.2654 
17.1319 25.9827 14.3044 
18.6664 27.0943 15.9389 
19.9254 25.6367 14.3908 
24.4334 27.1711 13.0627 
21.6125 27.1461 12.9945 
22.8911 25.6767 14.31 
21.3656 27.1567 15.6095 
24.4178 27.1522 15.9508 
23.0021 28.4519 14.4324 
27.4361 27.1272 12.8946 
28.62 28.6785 14.5849 
27.0811 27.2526 15.8614 
25.9495 25.826 14.3982 
1.36615 1.73643 18.6418 
2.84792 3.04664 17.0282 
2.85587 0.0886847 17.1648 
2.85703 3.11318 19.9674 
2.93731 0.250257 20.2152 
4.20182 1.52963 18.5222 
7.25745 1.75543 18.5448 
5.73521 2.97802 17.2764 
5.71426 0.199176 17.2575 
5.63952 3.13266 20.1667 
9.93987 1.4465 18.6752 
9.00426 2.82095 17.0184 
11.6492 2.91282 17.1717 
8.49401 0.0312458 17.253 
11.5938 0.0368595 17.4651 
8.72021 2.96253 20.3149 
11.3546 2.8479 19.9835 
8.51973 0.0236427 19.9536 
12.8469 1.52362 18.6888 
15.8018 1.45781 18.6259 
14.3544 2.89599 17.2963 
14.2127 0.00339505 17.3635 
14.4371 2.93834 20.0487 
14.2104 0.0448157 20.1043 
18.8016 1.29007 18.8462 
17.2938 2.84549 17.3842 
20.0261 2.82507 17.3037 
16.9875 0.0740314 17.2744 
17.0719 2.64303 20.0999 
20.1206 2.64098 20.2117 
20.2045 0.0707513 20.2002 
21.6707 1.52082 18.6033 
22.91 2.77836 17.2355 
24.4092 1.49693 18.7945 
22.867 2.84068 20.0297 
22.8843 0.047728 20.16 
28.5655 2.98501 17.2302 
27.3635 1.49794 18.769 
25.7806 2.8412 17.2758 
25.954 0.0963102 17.2522 
28.5188 3.02806 20.1084 
25.7939 3.05366 19.9972 
25.8749 0.0437929 20.3396 
28.7028 0.0909148 20.0899 
1.21593 4.53281 18.7589 
1.46214 7.27621 18.6226 
2.69914 5.95505 17.0917 
3.02489 5.86157 19.9845 
4.21801 4.44035 18.4986 
7.26451 4.37338 18.5902 
4.26653 7.22462 18.6612 