ITEM: TIMESTEP
33044
ITEM: NUMBER OF ATOMS
18
ITEM: BOX BOUNDS pp pp pp
0.0000000000000000e+00 2.8712000000000000e+01
0.0000000000000000e+00 2.8712000000000000e+01
0.0000000000000000e+00 2.8712000000000000e+01
ITEM: ATOMS x y z c_cna 
18.7108 10.1013 1.42826 5 
19.9451 11.3357 3.26568 5 
21.5265 9.94723 1.42815 5 
22.93 11.5229 2.85045 5 
20.7822 12.1725 1.4282 5 
22.93 11.5228 0.00573232 5 
18.5569 12.9169 1.42824 5 
20.1325 14.3204 2.85054 5 
20.1323 14.3203 0.00580177 5 
22.2802 13.6707 1.428 5 
21.5359 15.8961 1.42813 5 
23.1174 14.5079 3.26572 5 
24.3516 15.742 1.42802 5 
24.5056 12.9263 1.42798 5 
21.5313 12.9217 4.26225 5 
19.9451 11.3355 28.3027 5 
23.1174 14.5077 28.3024 5 
21.5312 12.9216 27.3061 5 
ITEM: TIMESTEP
33045
ITEM: NUMBER OF ATOMS
18
ITEM: BOX BOUNDS pp pp pp
0.0000000000000000e+00 2.8712000000000000e+01
0.0000000000000000e+00 2.8712000000000000e+01
0.0000000000000000e+00 2.8712000000000000e+01
ITEM: ATOMS x y z c_cna 
18.7108 10.1013 1.42826 5 
19.9451 11.3357 3.26568 5 
21.5265 9.94723 1.42815 5 
22.93 11.5229 2.85045 5 
20.7822 12.1725 1.4282 5 
22.93 11.5228 0.00573232 5 
18.5569 12.9169 1.42824 5 
20.1325 14.3204 2.85054 5 
20.1323 14.3203 0.00580177 5 
22.2802 13.6707 1.428 5 
21.5359 15.8961 1.42813 5 
23.1174 14.5079 3.26572 5 
24.3516 15.742 1.42802 5 
24.5056 12.9263 1.42798 5 
21.5313 12.9217 4.26225 5 
19.9451 11.3355 28.3027 5 
23.1174 14.5077 28.3024 5 
21.5312 12.9216 27.3061 5 
