ITEM: TIMESTEP
34042
ITEM: NUMBER OF ATOMS
18
ITEM: BOX BOUNDS pp pp pp
0.0000000000000000e+00 2.8712000000000000e+01
0.0000000000000000e+00 2.8712000000000000e+01
0.0000000000000000e+00 2.8712000000000000e+01
ITEM: ATOMS x y z c_cna 
22.9661 11.5225 2.863 5 
19.9917 14.3566 2.85838 5 
20.1457 14.3565 0.0426694 5 
21.3801 12.519 1.27691 5 
22.2169 14.3565 2.11393 5 
21.38 16.194 1.27696 5 
23.7153 14.3566 3.61199 5 
24.3648 15.7789 1.4643 5 
24.3649 12.9341 1.46422 5 
25.9405 14.3565 2.86765 5 
22.966 17.1906 2.86305 5 
21.5674 12.9342 4.26177 5 
21.5673 15.7789 4.26185 5 
24.5523 12.5189 4.44919 5 
22.9707 14.3566 5.83738 5 
24.5521 16.1942 4.44922 5 
25.7864 14.3566 5.68342 5 
22.9614 14.3565 28.6007 5 
ITEM: TIMESTEP
34043
ITEM: NUMBER OF ATOMS
18
ITEM: BOX BOUNDS pp pp pp
0.0000000000000000e+00 2.8712000000000000e+01
0.0000000000000000e+00 2.8712000000000000e+01
0.0000000000000000e+00 2.8712000000000000e+01
ITEM: ATOMS x y z c_cna 
22.9661 11.5225 2.863 5 
19.9917 14.3566 2.85838 5 
20.1457 14.3565 0.0426694 5 
21.3801 12.519 1.27691 5 
22.2169 14.3565 2.11393 5 
21.38 16.194 1.27696 5 
23.7153 14.3566 3.61199 5 
24.3648 15.7789 1.4643 5 
24.3649 12.9341 1.46422 5 
25.9405 14.3565 2.86765 5 
22.966 17.1906 2.86305 5 
21.5674 12.9342 4.26177 5 
21.5673 15.7789 4.26185 5 
24.5523 12.5189 4.44919 5 
22.9707 14.3566 5.83738 5 
24.5521 16.1942 4.44922 5 
25.7864 14.3566 5.68342 5 
22.9614 14.3565 28.6007 5 
