ITEM: TIMESTEP
34042
ITEM: NUMBER OF ATOMS
2001
ITEM: BOX BOUNDS pp pp pp
0.0000000000000000e+00 2.8712000000000000e+01
0.0000000000000000e+00 2.8712000000000000e+01
0.0000000000000000e+00 2.8712000000000000e+01
ITEM: ATOMS x y z c_cna 
1.43382 1.43501 1.42692 3 
2.87034 2.8694 2.86274 3 
2.8696 0.000412965 2.86291 3 
4.30503 1.43517 1.42676 3 
7.17505 1.43549 1.42691 3 
5.74066 2.87023 2.86277 3 
5.74031 0.000410797 2.86287 3 
10.0444 1.43541 1.42712 3 
8.60996 2.87079 2.86305 3 
11.4793 2.87022 2.86331 3 
8.60999 0.000416893 2.86307 3 
11.4796 0.000381748 2.86325 3 
12.9144 1.43496 1.42718 3 
15.7857 1.43478 1.42701 3 
14.3496 2.86937 2.86334 3 
14.3504 0.000380383 2.86322 3 
18.6577 1.43506 1.42682 3 
17.2214 2.8694 2.86305 3 
20.0937 2.87002 2.86279 3 
17.222 0.000387538 2.86299 3 
20.0941 0.000406656 2.86286 3 
21.5298 1.43536 1.42691 3 
24.4018 1.43533 1.42721 3 
22.966 2.87037 2.86306 3 
22.966 0.000395183 2.86305 3 
28.7106 2.86939 2.86306 3 
28.7099 0.00041013 2.86314 3 
27.2739 1.43512 1.42723 3 
25.8383 2.87004 2.86332 3 
25.8379 0.000409956 2.86325 3 
1.43525 4.30367 1.42628 3 
1.43851 7.17133 1.4244 3 
2.87231 5.73813 2.86225 3 
0.00124145 5.73681 2.86241 3 
4.30594 4.3048 1.42643 3 
7.17519 4.30616 1.42687 3 
4.30599 7.17592 1.42636 3 
7.17498 7.17771 1.42701 3 
5.74087 5.74101 2.86273 3 
10.0443 4.30599 1.42712 3 
10.0445 7.17748 1.42708 3 
8.60997 5.74198 2.86301 3 
11.4791 5.74102 2.86328 3 
15.7839 4.30303 1.42698 3 
12.9133 4.3043 1.42721 3 
12.9132 7.17512 1.42695 3 
15.7797 7.1696 1.42698 3 
14.3477 5.73815 2.8638 3 
18.6563 4.30368 1.42642 3 
18.6517 7.16863 1.42552 3 
17.2188 5.73688 2.86368 3 
20.0923 5.73848 2.86279 3 
24.402 4.30468 1.42707 3 
21.5293 4.3049 1.42636 3 
21.5272 7.17188 1.42426 3 
22.966 5.73969 2.86305 3 
24.402 7.17257 1.42715 3 
27.2749 4.30389 1.42679 3 
27.2781 7.17007 1.42442 3 
25.8397 5.73842 2.8633 3 
1.43722 10.0444 1.42506 3 
2.87203 8.60949 2.86252 3 
2.86864 11.483 2.86431 3 
0.00487561 11.4756 2.86343 3 
0.00881722 8.60013 2.85933 3 
4.30429 10.0485 1.4273 3 
7.17445 10.0495 1.42746 3 
5.74005 8.61286 2.86303 3 
5.73874 11.4848 2.86364 3 
10.0452 10.0492 1.42706 3 
8.60997 8.61367 2.86298 3 
11.4799 8.61287 2.86296 3 
8.61 11.4852 2.863 3 
11.4813 11.4848 2.86237 3 
12.915 10.0475 1.42626 3 
15.7809 10.0413 1.42485 3 
14.348 8.60952 2.86349 3 
14.3514 11.483 2.86169 3 
18.6322 10.0176 1.42574 3 
17.2112 8.60022 2.86671 3 
20.086 8.60222 2.86535 3 
17.2153 11.4757 2.8626 3 
20.0444 11.4399 2.89521 3 
21.5202 10.0139 1.41708 3 
24.3964 10.0404 1.4327 3 
22.9661 8.60888 2.86302 3 
22.9661 11.5225 2.863 5 
27.2907 10.0288 1.41263 3 
25.8462 8.60214 2.8607 3 
25.8879 11.4398 2.83084 3 
1.43221 12.9201 1.42923 3 
1.43221 15.793 1.42923 3 
2.86603 14.3566 2.8664 3 
4.30239 15.7923 1.42893 3 
4.3024 12.9209 1.42888 3 
7.17399 12.921 1.42802 3 
7.17399 15.7923 1.42805 3 
5.73805 14.3566 2.8642 3 
10.0457 12.9208 1.42716 3 
10.0457 15.7924 1.42721 3 
8.61003 14.3566 2.86308 3 
11.482 14.3566 2.86194 3 
12.9171 12.9199 1.42583 3 
15.7873 12.9162 1.42215 3 
12.9171 15.7932 1.4259 3 
15.7873 15.7969 1.4222 3 
14.354 14.3565 2.85972 3 
18.6486 12.8899 1.40464 3 
18.6486 15.8232 1.40467 3 
17.2221 14.3565 2.85358 3 
19.9917 14.3566 2.85838 5 
20.1457 14.3565 0.0426694 5 
21.3801 12.519 1.27691 5 
22.2169 14.3565 2.11393 5 
21.38 16.194 1.27696 5 
23.7153 14.3566 3.61199 5 
24.3648 15.7789 1.4643 5 
24.3649 12.9341 1.46422 5 
28.71 14.3566 2.87251 3 
27.2846 12.9114 1.41774 3 
27.2845 15.8017 1.41772 3 
25.9405 14.3565 2.86765 5 
25.8201 14.3565 0.00886273 3 
1.43715 18.6687 1.42502 3 
2.8686 17.2301 2.86437 3 
2.87197 20.1035 2.86253 3 
0.00873748 20.1128 2.85933 3 
0.00482731 17.2374 2.86345 3 
4.30425 18.6646 1.4273 3 
7.17445 18.6636 1.42755 3 
5.73873 17.2284 2.86375 3 
5.74001 20.1002 2.86313 3 
10.0452 18.6639 1.42723 3 
8.61004 17.228 2.86315 3 
11.4813 17.2283 2.86253 3 
8.61004 20.0994 2.86316 3 
11.48 20.1001 2.86319 3 
12.9151 18.6656 1.42641 3 
15.7809 18.6717 1.42493 3 
14.3515 17.23 2.86185 3 
14.3481 20.1034 2.86373 3 
18.6321 18.6953 1.42575 3 
17.2152 17.2374 2.86272 3 
20.0443 17.2732 2.89528 3 
17.2112 20.1128 2.86685 3 
20.0859 20.1107 2.86544 3 
21.52 18.6991 1.41705 3 
24.3963 18.6725 1.43266 3 
22.966 17.1906 2.86305 5 
22.966 20.1041 2.86305 3 
27.2907 18.6841 1.41259 3 
25.8878 17.2732 2.83088 3 
25.8461 20.1107 2.86069 3 
1.4384 21.5416 1.42433 3 
2.87224 22.9748 2.86223 3 
1.43517 24.4092 1.42621 3 
0.00117841 22.9761 2.86234 3 
4.30589 24.4081 1.42642 3 
4.3059 21.5371 1.42636 3 
7.17497 21.5353 1.4271 3 
5.74085 22.9719 2.86279 3 
7.17519 24.4067 1.42692 3 
10.0446 21.5354 1.42723 3 
8.61002 22.9709 2.86314 3 
11.4792 22.9719 2.86347 3 
10.0443 24.4068 1.42721 3 
12.9133 21.5378 1.42712 3 
15.7798 21.5433 1.42709 3 
14.3478 22.9747 2.86402 3 
12.9134 24.4085 1.42733 3 
15.784 24.4098 1.42707 3 
18.6517 21.5443 1.42554 3 
18.6564 24.4091 1.42646 3 
17.2188 22.976 2.86385 3 
20.0923 22.9744 2.86287 3 
21.5272 21.541 1.42423 3 
24.4019 21.5402 1.42705 3 
21.5293 24.4079 1.42633 3 
22.966 22.9731 2.86302 3 
24.4019 24.4081 1.42704 3 
27.278 21.5427 1.42436 3 
25.8397 22.9744 2.86324 3 
27.2748 24.4089 1.4267 3 
1.43379 27.2779 1.42691 3 
2.8703 25.8434 2.86273 3 
4.30501 27.2777 1.42677 3 
7.17506 27.2773 1.42692 3 
5.74067 25.8426 2.8628 3 
10.0445 27.2774 1.42717 3 
8.60999 25.842 2.86309 3 
11.4793 25.8426 2.86337 3 
12.9145 27.2778 1.42723 3 
15.7857 27.2779 1.42706 3 
14.3497 25.8434 2.86346 3 
18.6577 27.2777 1.42685 3 
17.2214 25.8434 2.86316 3 
20.0938 25.8428 2.86282 3 
21.5298 27.2774 1.4269 3 
22.966 25.8425 2.86304 3 
24.4018 27.2775 1.42718 3 
28.7105 25.8434 2.86301 3 
27.2739 27.2777 1.42718 3 
25.8383 25.8428 2.86329 3 
1.43427 1.43482 4.29912 3 
1.43472 1.43465 7.17161 3 
2.87091 2.86905 5.73533 3 
2.87003 0.000379393 5.73518 3 
4.30549 1.43499 4.29893 3 
7.17548 1.43541 4.29898 3 
4.30593 1.43488 7.17131 3 
7.17591 1.43542 7.17107 3 
5.74113 2.87004 5.73505 3 
5.74075 0.000381549 5.73505 3 
10.0449 1.43549 4.29921 3 
10.0454 1.43564 7.17105 3 
8.6104 2.87085 5.73506 3 
11.4798 2.87054 5.73527 3 
8.61043 0.000414802 5.7351 3 
11.4801 0.000438644 5.73523 3 
12.9149 1.43516 4.29931 3 
15.7861 1.43498 4.29915 3 
12.9154 1.43545 7.1711 3 
15.7865 1.43523 7.17093 3 
14.3502 2.86983 5.73541 3 
14.3508 0.000457501 5.73517 3 
18.6581 1.43512 4.29888 3 
18.6583 1.43519 7.17074 3 
17.2219 2.86962 5.73517 3 
20.0942 2.86983 5.73491 3 
17.2224 0.000476174 5.73492 3 
20.0943 0.000467696 5.73477 3 
21.5302 1.43533 4.29887 3 
24.4022 1.43536 4.29923 3 
21.5303 1.43518 7.17093 3 
24.4024 1.43513 7.17132 3 
22.9663 2.87005 5.73531 3 
22.9663 0.000430842 5.73501 3 
27.2743 1.43508 4.29934 3 
28.7112 2.86903 5.73571 3 
27.2746 1.43487 7.17168 3 
25.8388 2.86974 5.73578 3 
28.7103 0.000385019 5.73536 3 
25.8383 0.000386813 5.73531 3 
1.43606 4.30303 4.29915 3 
1.44028 7.16955 4.29911 3 
1.43687 4.30234 7.17272 3 
1.44221 7.16787 7.17589 3 
2.87332 5.73727 5.73587 3 
0.00268686 5.73553 5.73713 3 
4.30715 4.30398 7.17172 3 
4.30676 7.17513 4.29908 3 
7.17563 4.30601 4.29893 3 
4.30658 4.30431 4.29888 3 
7.17539 7.1775 4.29891 3 
7.17606 4.30598 7.17105 3 
4.30767 7.17459 7.1725 3 
5.74141 5.74067 5.73515 3 
7.17586 7.17742 7.17094 3 
10.0447 4.30617 4.29917 3 
10.045 7.17772 4.29897 3 
10.0452 4.30648 7.17097 3 
8.61036 5.74207 5.73491 3 
10.0454 7.17805 7.1706 3 
11.4796 5.74151 5.73526 3 
15.7847 4.3037 4.29974 3 
12.914 4.30482 4.29961 3 
12.914 7.17594 4.29962 3 
15.7815 7.17141 4.30161 3 
12.9148 4.30552 7.17143 3 
15.7856 4.30447 7.17166 3 
12.9148 7.17692 7.17138 3 
14.3487 5.7392 5.73633 3 
15.7838 7.17375 7.17345 3 
18.6572 4.30395 4.29926 3 
18.654 7.1702 4.30159 3 
18.6578 4.3042 7.17121 3 
17.2201 5.73782 5.73665 3 
18.6572 7.17318 7.17178 3 
20.0936 5.73827 5.7354 3 
24.4028 4.30491 4.29977 3 
21.5301 4.30473 4.299 3 
21.5302 7.17266 4.29896 3 
24.4049 7.17188 4.30183 3 
24.4027 4.30373 7.17264 3 
21.5298 4.30399 7.17184 3 
21.5275 7.17021 7.17503 3 
22.9663 5.73849 5.73675 3 
24.4036 7.16866 7.17728 3 
27.2756 4.30367 4.29972 3 
27.2803 7.16858 4.30062 3 
27.2763 4.30268 7.17337 3 
25.841 5.73727 5.73802 3 
27.2828 7.16521 7.17984 3 
1.43916 10.0413 4.30119 3 
1.44271 10.0397 7.18032 3 
2.87352 8.60811 5.73721 3 
2.87039 11.4816 5.73805 3 
0.0129396 8.59591 5.74113 3 
0.0103286 11.4687 5.75016 3 
4.30495 10.0475 4.29972 3 
7.1748 10.0492 4.29892 3 
4.30628 10.0471 7.17277 3 
5.74066 8.61243 5.73529 3 
7.17537 10.0492 7.17055 3 
5.73948 11.4845 5.73517 3 
10.0455 10.0495 4.29852 3 
8.61034 8.61374 5.73459 3 
10.0458 10.0498 7.16989 3 
11.4804 8.61344 5.73473 3 
8.61033 11.4853 5.73414 3 
11.4814 11.4854 5.73374 3 
12.9157 10.0485 4.29868 3 
15.7828 10.0444 4.30094 3 
12.9161 10.0494 7.17029 3 
14.3491 8.6111 5.73627 3 
15.7853 10.0472 7.17234 3 
14.3517 11.4847 5.73426 3 
18.6414 10.0289 4.31336 3 
17.2155 8.60443 5.74121 3 
18.6594 10.0462 7.1697 3 
20.0943 8.60634 5.73482 3 
17.2186 11.4807 5.73874 3 
20.1024 11.4833 5.72678 3 
21.5358 10.0405 4.29331 3 
24.4121 10.014 4.30898 3 
21.5157 10.0289 7.18769 3 
22.9638 8.60223 5.74311 3 
22.9339 11.4399 5.78477 3 
24.4034 10.0177 7.19694 3 
27.3 10.0176 4.30036 3 
25.851 8.59668 5.74793 3 
27.314 10.0059 7.21095 3 
25.9356 11.3815 5.83251 3 
1.43275 12.9162 4.30391 3 
1.43276 15.797 4.30396 3 
1.43543 12.9209 7.17339 3 
1.43547 15.7923 7.17345 3 
2.86805 14.3566 5.7359 3 
4.30293 15.7933 4.30027 3 
4.30293 12.92 4.30022 3 
7.17435 12.9208 4.29892 3 
7.17437 15.7924 4.29901 3 
4.30463 15.7926 7.17133 3 
4.30461 12.9205 7.17124 3 
7.175 12.9209 7.17001 3 
5.73897 14.3566 5.73479 3 
7.17503 15.7922 7.17012 3 
10.046 12.921 4.29806 3 
10.0461 15.7922 4.29819 3 
10.0461 12.921 7.16939 3 
8.61035 14.3566 5.73398 3 
10.0461 15.792 7.16951 3 
11.4819 14.3565 5.73336 3 
12.9177 15.7922 4.2973 3 
12.9177 12.9209 4.29719 3 
15.7879 12.9201 4.29684 3 
15.7879 15.7929 4.29694 3 
12.9171 12.921 7.16935 3 
15.7877 12.9208 7.1701 3 
12.9171 15.7919 7.16948 3 
14.3529 14.3565 5.73312 3 
15.7877 15.7921 7.17025 3 
18.6476 12.9114 4.30829 3 
18.6476 15.8017 4.30839 3 
18.6642 12.9212 7.16501 3 
17.2223 14.3565 5.73493 3 
18.6641 15.7917 7.16512 3 
20.112 14.3565 5.71719 3 
21.5674 12.9342 4.26177 5 
21.5673 15.7789 4.26185 5 
24.5523 12.5189 4.44919 5 
21.5209 12.9114 7.18159 3 
21.5208 15.8017 7.18165 3 
22.9707 14.3566 5.83738 5 
24.4244 15.8232 7.1806 3 
24.4245 12.8899 7.18051 3 
24.5521 16.1942 4.44922 5 
28.7067 14.3566 5.73495 3 
27.2835 12.8899 4.32143 3 
27.2835 15.8232 4.32147 3 
27.2788 12.9312 7.17577 3 
25.7864 14.3566 5.68342 5 
27.2788 15.782 7.17582 3 
1.43914 18.6718 4.30128 3 
1.44277 18.6734 7.18048 3 
2.8704 17.2316 5.73816 3 
2.87354 20.105 5.73733 3 
0.0129351 20.1171 5.74124 3 
0.0103197 17.2444 5.75025 3 
4.30492 18.6657 4.29986 3 
7.17484 18.6639 4.29911 3 
4.30635 18.666 7.17296 3 
5.7395 17.2287 5.73533 3 
7.17544 18.6639 7.17079 3 
5.74072 20.1007 5.7355 3 
10.0456 18.6636 4.29876 3 
8.61038 17.2278 5.73435 3 
10.0458 18.6632 7.17021 3 
11.4815 17.2276 5.73398 3 
8.61045 20.0993 5.73486 3 
11.4805 20.0995 5.73506 3 
12.9158 18.6645 4.29897 3 
15.7829 18.6686 4.3012 3 
12.9161 18.6636 7.17061 3 
14.3517 17.2282 5.73448 3 
15.7853 18.6657 7.17265 3 
14.3492 20.1019 5.73662 3 
18.6413 18.6841 4.31356 3 
17.2186 17.2322 5.73896 3 
18.6593 18.6668 7.16996 3 
20.1023 17.2297 5.72695 3 
17.2155 20.1086 5.74151 3 
20.0941 20.1067 5.73504 3 
21.5357 18.6725 4.29344 3 
24.4119 18.6991 4.30907 3 
21.5156 18.6841 7.1879 3 
22.9338 17.2732 5.7849 3 
22.9636 20.1108 5.74325 3 
24.4033 18.6955 7.19707 3 
27.2999 18.6954 4.30041 3 
25.9354 17.3316 5.83256 3 
27.314 18.7072 7.21106 3 
25.8509 20.1163 5.74801 3 
1.44023 21.5434 4.29913 3 
1.43602 24.4098 4.29913 3 
1.44226 21.5451 7.17604 3 
2.87333 22.9757 5.73594 3 
1.4369 24.4105 7.17283 3 
0.00269326 22.9774 5.73715 3 
7.1757 24.4069 4.29902 3 
4.30675 21.5379 4.29916 3 
7.17544 21.5355 4.29906 3 
4.30657 24.4086 4.29892 3 
4.30776 21.5385 7.1727 3 
7.176 21.5356 7.1712 3 
4.30724 24.4089 7.17186 3 
5.74149 22.9723 5.73529 3 
7.17618 24.4069 7.17122 3 
10.0451 21.5353 4.29921 3 
10.0448 24.4067 4.29931 3 
10.0455 21.5349 7.17093 3 
8.61048 22.9709 5.73512 3 
10.0453 24.4065 7.17119 3 
11.4798 22.9714 5.73555 3 
12.9141 21.537 4.29993 3 
15.7816 21.5416 4.30189 3 
12.9141 24.408 4.29981 3 
15.7848 24.4092 4.29998 3 
12.9149 21.5361 7.17174 3 
15.7838 21.5393 7.17382 3 
14.3488 22.9738 5.73666 3 
15.7856 24.4086 7.17197 3 
12.9148 24.4075 7.17169 3 
18.654 21.5428 4.3018 3 
18.6572 24.409 4.29943 3 
18.6571 21.5399 7.17207 3 
17.2201 22.9752 5.73694 3 
20.0936 22.9747 5.73558 3 
18.6577 24.4089 7.17147 3 
21.53 21.5403 4.29903 3 
24.4048 21.541 4.30187 3 
24.4027 24.4079 4.29974 3 
21.5301 24.4081 4.29907 3 
21.5274 21.5429 7.17524 3 
21.5298 24.409 7.17196 3 
22.9663 22.9744 5.73681 3 
24.4027 24.4092 7.17271 3 
24.4036 21.5444 7.17741 3 
27.2802 21.5443 4.30061 3 
27.2756 24.4091 4.2997 3 
27.2829 21.5478 7.17995 3 
25.841 22.9756 5.73802 3 
27.2764 24.4102 7.1734 3 
1.43423 27.278 4.29911 3 
1.43471 27.2781 7.17166 3 
2.87089 25.8438 5.73536 3 
4.30549 27.2778 4.29895 3 
7.17552 27.2774 4.299 3 
4.30594 27.2779 7.17136 3 
5.74117 25.8428 5.73512 3 
7.17597 27.2774 7.17112 3 
10.0449 27.2773 4.29922 3 
8.61047 25.842 5.73515 3 
10.0454 27.2773 7.17112 3 
11.4799 25.8424 5.7354 3 
12.915 27.2777 4.29938 3 
15.7862 27.2778 4.29924 3 
12.9154 27.2776 7.17118 3 
14.3502 25.8431 5.73559 3 
15.7865 27.2778 7.17105 3 
18.6581 27.2777 4.29895 3 
17.2219 25.8434 5.73535 3 
18.6583 27.2779 7.17084 3 
20.0942 25.8431 5.73503 3 
21.5302 27.2775 4.29892 3 
24.4022 27.2774 4.29922 3 
21.5303 27.2778 7.17099 3 
22.9663 25.8428 5.73535 3 
24.4024 27.2777 7.17135 3 
27.2743 27.2777 4.29932 3 
28.7112 25.8437 5.73574 3 
25.8387 25.8431 5.73579 3 
27.2746 27.2779 7.17169 3 
2.87133 2.86884 8.60812 3 
1.43489 1.43463 10.044 3 
2.87119 2.86918 11.4803 3 
2.87041 0.000415176 8.6076 3 
2.87041 0.000486756 11.4796 3 
5.74152 2.87002 8.60736 3 
4.30617 1.43495 10.0436 3 
7.17623 1.43554 10.0429 3 
5.74158 2.8703 11.4792 3 
5.74124 0.000497447 11.479 3 
5.74113 0.000407802 8.60723 3 
8.6108 2.87102 8.60686 3 
11.4803 2.87098 8.60686 3 
8.61085 0.000467201 8.60695 3 
10.0457 1.43587 10.0425 3 
8.61103 2.87133 11.4783 3 
11.4807 2.87149 11.4778 3 
11.4806 0.000522606 8.60685 3 
8.61106 0.000530041 11.4784 3 
11.4808 0.000600631 11.4779 3 
14.3507 2.87045 8.60691 3 
14.3511 0.000568097 8.60673 3 
12.9158 1.43579 10.0424 3 
15.7867 1.43559 10.0423 3 
14.3512 2.87115 11.4777 3 
14.3513 0.000649443 11.4777 3 
17.2222 2.87004 8.60675 3 
20.0939 2.86968 8.60711 3 
17.2225 0.000594751 8.60657 3 
20.094 0.000654069 11.4782 3 
17.2223 0.000662139 11.4779 3 
18.6581 1.43533 10.0425 3 
17.222 2.87051 11.4782 3 
20.0936 2.86998 11.4787 3 
20.0942 0.000558088 8.60669 3 
22.9661 2.86949 8.60764 3 
22.9659 0.000586618 11.4787 3 
21.53 1.43516 10.0429 3 
24.4021 1.43495 10.0434 3 
22.9657 2.86958 11.4794 3 
22.9662 0.000503125 8.60701 3 
28.7116 2.86859 8.60861 3 
28.711 2.86893 11.4805 3 
25.8387 2.8691 8.60824 3 
25.8382 0.000533381 11.4792 3 
28.7105 0.00050979 11.4796 3 
27.2746 1.43474 10.0438 3 
25.8383 2.86921 11.48 3 
28.7106 0.000433356 8.60772 3 
25.8384 0.00045535 8.60743 3 
2.8741 5.7368 8.61001 3 
1.43696 4.30225 10.046 3 
1.44207 7.16862 10.0511 3 
2.87336 5.73798 11.4825 3 
0.000949815 5.73684 11.4832 3 
0.00350152 5.73431 8.61253 3 
5.74192 5.74061 8.60769 3 
4.30742 4.30406 10.0444 3 
4.30806 7.17497 10.0455 3 
7.17636 4.30617 10.043 3 
7.17624 7.17769 10.0428 3 
5.74191 5.74115 11.4796 3 
8.61079 5.74226 8.60666 3 
11.4803 5.74215 8.60672 3 
10.0457 4.3069 10.0424 3 
10.0458 7.17847 10.0419 3 
8.61101 5.74265 11.478 3 
11.4808 5.74285 11.4776 3 
14.35 5.74065 8.60756 3 
15.7864 4.30568 10.0425 3 
12.9155 4.30642 10.0425 3 
12.9158 7.178 10.0421 3 
15.7865 7.17689 10.0424 3 
14.3513 5.74224 11.4777 3 
17.2216 5.73967 8.6073 3 
20.0923 5.73786 8.60889 3 
18.6573 4.30454 10.0434 3 
18.6555 7.17375 10.0452 3 
17.2214 5.74066 11.4789 3 
20.0926 5.73928 11.4802 3 
22.9654 5.73695 8.61022 3 
21.5293 4.30381 10.0442 3 
21.5274 7.17145 10.0475 3 
22.9652 5.73828 11.4813 3 
24.4021 7.16965 10.0493 3 
24.4021 4.30317 10.0451 3 
25.8401 5.73558 8.61171 3 
27.2757 4.30243 10.0459 3 
27.2789 7.16792 10.0513 3 
25.8389 5.73738 11.4824 3 
2.87498 8.60796 8.6122 3 
2.87166 11.4843 8.60926 3 
1.43901 10.0468 10.048 3 
2.87253 8.61168 11.4816 3 
2.87148 11.4847 11.4806 3 
0.00526542 11.4848 8.61425 3 
0.01572 8.59402 8.62472 3 
0.00316074 8.60799 11.4841 3 
0.000235692 11.4843 11.4807 3 
5.74142 8.61248 8.60767 3 
5.74043 11.4849 8.60669 3 
4.30663 10.0486 10.0442 3 
7.1758 10.0496 10.0421 3 
5.74132 8.61344 11.4789 3 
5.74089 11.4852 11.4784 3 
8.61072 8.61393 8.60615 3 
11.4808 8.614 8.60604 3 
8.61065 11.4854 8.60555 3 
11.4814 11.4855 8.6053 3 
10.046 10.05 10.0413 3 
8.6109 8.61426 11.4775 3 
11.4812 8.61441 11.477 3 
8.61087 11.4855 11.477 3 
11.4815 11.4856 11.4765 3 
14.3507 8.61283 8.60698 3 
14.3522 11.4853 8.60568 3 
12.9166 10.0498 10.0413 3 
15.7879 10.0494 10.0411 3 
14.352 8.61404 11.477 3 
14.3528 11.4855 11.4763 3 
17.2222 8.61137 8.60683 3 
20.0878 8.60442 8.61351 3 
17.2248 11.4849 8.60434 3 
20.0904 11.4807 8.61054 3 
18.6567 10.0472 10.0438 3 
17.222 8.61282 11.4783 3 
20.0927 8.61109 11.4799 3 
17.2234 11.4852 11.4769 3 
20.0948 11.4847 11.4775 3 
22.9624 8.60023 8.6178 3 
22.9665 11.4757 8.61389 3 
21.5281 10.0444 10.0462 3 
22.9655 8.60956 11.4811 3 
22.9674 11.483 11.4777 3 
24.4043 10.0413 10.0482 3 
25.8442 8.59595 8.62191 3 
25.8532 11.4687 8.61931 3 
27.2833 10.0397 10.0517 3 
25.8402 8.60817 11.4826 3 
25.8411 11.4816 11.4794 3 
2.871 14.3566 8.60842 3 
1.43751 12.9206 10.0465 3 
1.43756 15.7925 10.0466 3 
2.87122 14.3565 11.4803 3 
0.00409586 14.3566 8.6131 3 
5.74018 14.3565 8.60634 3 
4.306 12.9208 10.0434 3 
7.1756 12.9209 10.0417 3 
4.30605 15.7923 10.0435 3 
7.17564 15.792 10.0417 3 
5.74079 14.3564 11.4782 3 
8.61065 14.3565 8.60536 3 
11.4816 14.3564 8.6051 3 
10.0461 12.921 10.0409 3 
10.0461 15.7918 10.041 3 
8.61087 14.3564 11.477 3 
11.4816 14.3564 11.4765 3 
14.3527 14.3564 8.60524 3 
12.9171 12.921 10.0408 3 
15.7891 12.921 10.0401 3 
12.9171 15.7918 10.0409 3 
15.789 15.7918 10.0402 3 
14.3531 14.3564 11.4761 3 
17.226 14.3564 8.60323 3 
20.0942 14.3565 8.60692 3 
18.659 12.9208 10.0415 3 
18.659 15.7921 10.0415 3 
17.2239 14.3564 11.4765 3 
20.096 14.3565 11.4763 3 
22.9755 14.3565 8.60708 3 
21.5323 12.9201 10.0413 3 
21.5322 15.7929 10.0414 3 
22.9694 14.3565 11.4751 3 
24.4069 15.7969 10.0418 3 
24.4069 12.9162 10.0418 3 
28.7114 14.3566 11.4801 3 
25.8379 14.3566 8.60372 3 
27.2764 12.9209 10.0444 3 
27.2764 15.7923 10.0445 3 
25.8389 14.3566 11.4771 3 
2.87174 17.2288 8.60941 3 
2.8751 20.1051 8.61242 3 
0.00531311 17.2284 8.61436 3 
0.0157949 20.119 8.62487 3 
1.43913 18.6663 10.0482 3 
2.87158 17.2283 11.4807 3 
2.87269 20.1014 11.4819 3 
0.000336013 17.2288 11.4808 3 
0.00328938 20.1051 11.4842 3 
5.7405 17.2281 8.60687 3 
5.74152 20.1006 8.60794 3 
4.30677 18.6645 10.0444 3 
7.17591 18.6634 10.0423 3 
5.74099 17.2277 11.4786 3 
5.74149 20.0996 11.4793 3 
8.61071 17.2276 8.60576 3 
11.4814 17.2274 8.60555 3 
8.61084 20.0991 8.60649 3 
11.4808 20.099 8.60641 3 
10.046 18.6629 10.0416 3 
8.61092 17.2273 11.4773 3 
11.4815 17.2272 11.4767 3 
8.61102 20.0987 11.4778 3 
11.4812 20.0985 11.4773 3 
14.3522 17.2276 8.60588 3 
14.3507 20.1001 8.60735 3 
12.9166 18.663 10.0416 3 
15.7879 18.6635 10.0414 3 
14.3528 17.2272 11.4764 3 
14.352 20.0989 11.4772 3 
17.2247 17.228 8.60452 3 
20.0902 17.2323 8.61069 3 
17.2221 20.1017 8.60713 3 
20.0877 20.1087 8.61375 3 
18.6566 18.6657 10.044 3 
17.2233 17.2276 11.4771 3 
20.0947 17.2283 11.4775 3 
17.2219 20.1002 11.4785 3 
20.0926 20.102 11.48 3 
22.9664 17.2374 8.61399 3 
22.9623 20.1129 8.61795 3 
21.528 18.6687 10.0464 3 
22.9673 17.2301 11.4777 3 
22.9655 20.1036 11.4811 3 
24.4042 18.6718 10.0483 3 
25.8532 17.2444 8.6194 3 
25.8442 20.1171 8.62206 3 
27.2834 18.6734 10.0519 3 
25.8411 17.2315 11.4795 3 
25.8403 20.1049 11.4827 3 
2.87419 22.9762 8.6102 3 
0.00107208 22.9762 11.4834 3 
1.43706 24.4107 10.0462 3 
1.44222 21.5444 10.0514 3 
2.87352 22.975 11.4827 3 
0.0035626 22.9787 8.61267 3 
5.74207 22.9724 8.60794 3 
4.30754 24.4089 10.0447 3 
7.17653 24.4068 10.0432 3 
4.30825 21.5381 10.0457 3 
7.1764 21.5353 10.0431 3 
5.74209 22.9719 11.4799 3 
8.61093 22.9707 8.60697 3 
11.4803 22.9709 8.60705 3 
10.0458 24.4061 10.0427 3 
10.0459 21.5345 10.0423 3 
8.61114 22.9704 11.4783 3 
11.4809 22.9702 11.4779 3 
14.35 22.9724 8.60791 3 
12.9158 21.535 10.0425 3 
15.7865 21.5362 10.0427 3 
12.9155 24.4067 10.0428 3 
15.7864 24.4075 10.0428 3 
14.3512 22.9709 11.4779 3 
17.2216 22.9734 8.60763 3 
20.0923 22.9753 8.60914 3 
20.0926 22.9739 11.4804 3 
18.6554 21.5394 10.0454 3 
18.6572 24.4087 10.0436 3 
17.2213 22.9725 11.4791 3 
22.9654 22.9761 8.61038 3 
22.9652 22.9749 11.4814 3 
24.4022 24.4099 10.0452 3 
24.4021 21.5434 10.0494 3 
21.5273 21.5417 10.0476 3 
21.5292 24.4093 10.0444 3 
25.8401 22.9774 8.61182 3 
27.279 21.5451 10.0514 3 
27.2758 24.4105 10.0461 3 
25.8389 22.9757 11.4825 3 
2.87139 25.844 8.60824 3 
2.87128 25.8438 11.4805 3 
1.43489 27.2783 10.0441 3 
5.74162 25.8429 8.6075 3 
4.30621 27.278 10.0436 3 
7.17626 27.2774 10.043 3 
5.74168 25.8427 11.4794 3 
8.61091 25.8419 8.60703 3 
11.4804 25.8421 8.60704 3 
10.0458 27.2772 10.0426 3 
8.61114 25.8417 11.4785 3 
11.4808 25.8417 11.4781 3 
14.3508 25.8427 8.60713 3 
12.9158 27.2774 10.0425 3 
15.7867 27.2777 10.0424 3 
14.3512 25.8421 11.4779 3 
17.2222 25.8431 8.60697 3 
20.0939 25.8434 8.60725 3 
20.0936 25.8433 11.4788 3 
18.6581 27.2779 10.0426 3 
17.222 25.8428 11.4783 3 
22.9661 25.8435 8.6077 3 
22.9658 25.8436 11.4794 3 
24.4022 27.2781 10.0434 3 
21.53 27.278 10.0429 3 
28.7111 25.8441 11.4806 3 
28.7116 25.8442 8.60868 3 
25.8387 25.8438 8.60829 3 
25.8383 25.8438 11.4801 3 
27.2746 27.2782 10.0439 3 
1.43445 1.43503 12.9154 3 
1.43389 1.43564 15.7854 3 
2.87018 2.87038 14.3507 3 
2.86993 0.000539487 14.3504 3 
4.30595 1.43526 12.9151 3 
7.17617 1.43578 12.9142 3 
4.30518 1.43582 15.7853 3 
7.17558 1.43606 15.7846 3 
5.741 2.871 14.3501 3 
5.74085 0.000536043 14.35 3 
8.61083 0.000556885 14.3491 3 
10.0459 1.4361 12.9134 3 
8.61082 2.87168 14.349 3 
11.4807 2.8718 14.3483 3 
11.4807 0.000580507 14.3484 3 
10.0455 1.4362 15.7837 3 
12.916 1.43606 12.913 3 
15.7866 1.43584 12.9132 3 
14.3511 2.87148 14.3482 3 
14.3511 0.000610231 14.3482 3 
12.9156 1.43607 15.7831 3 
15.7865 1.4359 15.7832 3 
18.658 1.43561 12.9135 3 
17.2221 2.87104 14.3486 3 
17.2222 0.000632493 14.3484 3 
18.658 1.43579 15.7836 3 
20.0938 2.87071 14.3492 3 
20.0939 0.000641707 14.3489 3 
21.5298 1.43537 12.914 3 
24.4019 1.43519 12.9146 3 
22.9657 2.87044 14.3497 3 
22.9658 0.000607639 14.3494 3 
21.5299 1.4357 15.7841 3 
24.4019 1.43563 15.7846 3 
28.7101 0.00054886 14.3503 3 
27.2742 1.43504 12.9151 3 
25.838 2.87024 14.3503 3 
25.838 0.000561794 14.3499 3 
28.7103 2.87016 14.3507 3 
27.274 1.4356 15.7851 3 
1.43537 4.30412 12.9166 3 
1.4364 7.17499 12.9172 3 
1.43397 4.30626 15.7855 3 
1.43379 7.17774 15.7854 3 
2.87057 5.74119 14.351 3 
4.30674 4.3051 12.9158 3 
4.3065 7.1771 12.9156 3 
7.17623 4.3067 12.9142 3 
7.17601 7.17837 12.9138 3 
4.30523 4.30673 15.7853 3 
4.30484 7.1784 15.7851 3 
7.17547 4.30739 15.7845 3 
7.17529 7.17886 15.7843 3 
5.74087 5.74242 14.3499 3 
10.0458 4.30734 12.9132 3 
10.0459 7.17885 12.9128 3 
11.4809 5.74325 14.348 3 
10.0455 4.3076 15.7835 3 
10.0456 7.17901 15.7834 3 
8.61074 5.74314 14.3487 3 
15.7864 4.30644 12.9134 3 
12.916 4.30719 12.9129 3 
12.9164 7.17873 12.9125 3 
15.7868 7.178 12.9131 3 
14.3513 5.74283 14.3481 3 
12.9157 4.30733 15.7831 3 
15.7865 4.3069 15.7832 3 
12.9161 7.17882 15.783 3 
15.7869 7.17841 15.7832 3 
18.6576 4.30559 12.9142 3 
18.6576 7.17691 12.9142 3 
18.658 4.30654 15.7837 3 
18.6583 7.178 15.7836 3 
17.2222 5.74214 14.3487 3 
20.0937 5.74157 14.3493 3 
21.5294 4.30498 12.9149 3 
24.4018 4.30448 12.9156 3 
21.5293 7.176 12.915 3 
24.4021 7.17523 12.9158 3 
21.5298 4.30631 15.7843 3 
24.4019 4.30618 15.7848 3 
21.53 7.17773 15.7841 3 
24.4019 7.17755 15.7846 3 
22.9657 5.74115 14.3499 3 
27.2747 4.3041 12.9163 3 
27.2755 7.17464 12.9168 3 
27.274 4.30612 15.7853 3 
27.2739 7.17748 15.7851 3 
28.7107 5.74069 14.3511 3 
25.8381 5.7408 14.3506 3 
1.43513 10.0486 12.9157 3 
1.43307 10.0496 15.7849 3 
2.86993 8.61346 14.3504 3 
2.86934 11.4852 14.35 3 
4.30587 10.0493 12.9149 3 
7.17579 10.0499 12.9134 3 
4.3044 10.0499 15.7848 3 
7.17514 10.0501 15.7841 3 
5.74052 8.61412 14.3496 3 
5.74027 11.4854 14.3493 3 
10.0461 10.0501 12.9124 3 
11.4814 11.4856 14.3475 3 
8.6107 8.61452 14.3484 3 
8.6107 11.4856 14.3482 3 
10.0457 10.0502 15.7832 3 
11.4812 8.61459 14.3477 3 
12.9169 10.0501 12.912 3 
15.7877 10.0498 12.9124 3 
12.9165 10.0501 15.7829 3 
15.7876 10.0499 15.783 3 
14.3519 8.61439 14.3477 3 
14.3524 11.4855 14.3475 3 
18.6587 10.0493 12.913 3 
17.2228 8.61395 14.3482 3 
20.0942 8.6134 14.3487 3 
17.2237 11.4855 14.3477 3 
18.659 10.0497 15.7833 3 
20.0953 11.4853 14.3477 3 
22.9666 11.4847 14.3479 3 
21.5303 10.0485 12.9134 3 
24.4028 10.0474 12.9141 3 
22.966 8.61287 14.3492 3 
21.5304 10.0494 15.7836 3 
24.4019 10.0492 15.784 3 
28.7107 8.61251 14.3506 3 
28.7097 11.4849 14.3496 3 
27.2758 10.0471 12.9154 3 
25.8383 8.61246 14.3498 3 
27.2735 10.0492 15.7845 3 
25.8382 11.4844 14.3486 3 
2.86917 14.3564 14.3499 3 
1.43436 12.9208 12.9151 3 
1.43442 15.7923 12.9151 3 
1.43261 12.9209 15.7847 3 
1.43265 15.792 15.7848 3 
4.30556 12.9208 12.9146 3 
7.17568 12.9209 12.9132 3 
4.30561 15.7921 12.9147 3 
7.17572 15.7919 12.9133 3 
4.30419 15.7918 15.7848 3 
4.30415 12.9209 15.7848 3 
7.17506 12.921 15.7841 3 
7.17507 15.7917 15.7842 3 
5.7402 14.3564 14.3493 3 
10.0462 12.921 12.9122 3 
10.0462 15.7917 12.9123 3 
8.61069 14.3563 14.3482 3 
10.0458 12.921 15.7832 3 
10.0458 15.7917 15.7833 3 
11.4815 14.3563 14.3475 3 
12.9172 12.921 12.9118 3 
15.7883 12.921 12.912 3 
12.9172 15.7917 12.9119 3 
15.7883 15.7918 12.9121 3 
12.9167 12.921 15.7828 3 
15.7881 12.921 15.7829 3 
12.9167 15.7917 15.7829 3 
15.7881 15.7918 15.7829 3 
14.3526 14.3564 14.3474 3 
18.6597 12.921 12.9121 3 
18.6597 15.7919 12.9121 3 
18.6596 12.9209 15.7831 3 
18.6596 15.7919 15.7831 3 
20.0958 14.3564 14.3473 3 
17.224 14.3564 14.3476 3 
21.5319 12.9208 12.9115 3 
21.5319 15.7922 12.9115 3 
24.4032 12.9199 12.912 3 
24.4032 15.7932 12.912 3 
21.531 12.9208 15.7831 3 
24.4019 12.9207 15.7835 3 
21.531 15.7921 15.7831 3 
24.4019 15.7923 15.7835 3 
22.9672 14.3565 14.3472 3 
28.7093 14.3565 14.3493 3 
27.2742 12.9205 12.9137 3 
27.2742 15.7926 12.9137 3 
27.273 12.9208 15.7841 3 
27.273 15.7921 15.7841 3 
25.8377 14.3565 14.3481 3 
1.43527 18.6644 12.9159 3 
1.4332 18.6633 15.785 3 
2.86944 17.2277 14.3501 3 
2.87009 20.0995 14.3507 3 
4.30601 18.6636 12.9152 3 
7.17587 18.663 12.9136 3 
4.30447 18.663 15.785 3 
7.17517 18.6627 15.7843 3 
5.74064 20.0988 14.3498 3 
5.74034 17.2274 14.3495 3 
11.4814 17.2271 14.3477 3 
8.6107 17.2272 14.3484 3 
10.0461 18.6627 12.9127 3 
10.0457 18.6626 15.7834 3 
11.4812 20.0982 14.3479 3 
8.61076 20.0983 14.3487 3 
12.9169 18.6627 12.9122 3 
15.7876 18.663 12.9126 3 
12.9165 18.6627 15.783 3 
15.7876 18.6629 15.783 3 
14.3524 17.2272 14.3476 3 
14.3519 20.0985 14.3479 3 
20.0942 20.0996 14.3487 3 
18.6586 18.6636 12.9131 3 
17.2237 17.2274 14.3478 3 
18.659 18.6633 15.7833 3 
20.0952 17.2276 14.3477 3 
17.2228 20.099 14.3483 3 
21.5303 18.6646 12.9134 3 
24.4028 18.6656 12.914 3 
22.966 20.1002 14.3491 3 
22.9667 17.2283 14.3478 3 
21.5304 18.6636 15.7835 3 
24.402 18.6638 15.7839 3 
28.7108 20.1005 14.3507 3 
28.7097 17.2281 14.3496 3 
27.2759 18.6659 12.9155 3 
25.8382 17.2286 14.3486 3 
27.2737 18.6638 15.7845 3 
25.8384 20.1006 14.3498 3 
1.43658 21.538 12.9174 3 
1.43548 24.4089 12.9167 3 
1.43392 21.5353 15.7856 3 
1.43406 24.4068 15.7857 3 
2.87071 22.9718 14.3513 3 
4.30666 21.5359 12.9159 3 
7.17615 21.5346 12.9141 3 
4.30687 24.4079 12.9161 3 
7.17637 24.4063 12.9145 3 
4.30531 24.4063 15.7855 3 
4.30496 21.5346 15.7853 3 
7.17537 21.5341 15.7845 3 
7.17556 24.4057 15.7847 3 
5.74101 22.9706 14.3502 3 
10.0459 24.4057 12.9135 3 
10.046 21.5341 12.9131 3 
11.4809 22.9697 14.3482 3 
8.61084 22.9698 14.349 3 
10.0456 21.5339 15.7836 3 
10.0455 24.4054 15.7837 3 
15.7864 24.4067 12.9136 3 
12.9164 21.5342 12.9128 3 
15.7867 21.535 12.9133 3 
14.3513 22.9702 14.3482 3 
12.9161 21.5341 15.7831 3 
15.787 21.5345 15.7832 3 
12.9157 24.4057 15.7832 3 
15.7866 24.4062 15.7833 3 
12.916 24.4059 12.9131 3 
18.6575 21.5362 12.9143 3 
18.6575 24.4076 12.9143 3 
18.6583 21.535 15.7836 3 
18.658 24.4066 15.7837 3 
20.0937 22.9716 14.3493 3 
17.2222 22.9709 14.3487 3 
24.4021 21.5379 12.9159 3 
21.5293 21.5371 12.915 3 
22.9657 22.972 14.3499 3 
24.4019 24.4087 12.9157 3 
21.5294 24.4082 12.915 3 
21.53 21.5353 15.784 3 
21.5299 24.4068 15.7842 3 
24.4019 24.407 15.7847 3 
24.402 21.5355 15.7845 3 
28.7108 22.9724 14.3512 3 
27.2756 21.5384 12.9169 3 
27.2748 24.409 12.9164 3 
27.2741 21.5355 15.7851 3 
27.2741 24.407 15.7853 3 
25.8382 22.9723 14.3506 3 
1.43451 27.278 12.9154 3 
2.87025 25.8427 14.3509 3 
1.43391 27.2775 15.7854 3 
4.30599 27.2778 12.9152 3 
7.17622 27.2773 12.9143 3 
5.74108 25.8421 14.3502 3 
4.30522 27.2773 15.7853 3 
7.1756 27.277 15.7847 3 
11.4808 25.8413 14.3484 3 
10.0459 27.277 12.9135 3 
10.0455 27.2769 15.7837 3 
8.61089 25.8414 14.3492 3 
12.916 27.2772 12.9131 3 
15.7866 27.2775 12.9132 3 
14.3511 25.8417 14.3483 3 
12.9156 27.277 15.7832 3 
15.7865 27.2772 15.7832 3 
17.2221 25.8422 14.3486 3 
18.658 27.2777 12.9136 3 
20.0937 25.8425 14.3492 3 
18.658 27.2774 15.7836 3 
21.5298 27.2779 12.9141 3 
24.4019 27.278 12.9146 3 
21.5299 27.2775 15.7841 3 
24.4019 27.2776 15.7846 3 
22.9658 25.8428 14.3497 3 
28.7104 25.8429 14.3508 3 
27.2743 27.278 12.9151 3 
27.274 27.2776 15.7851 3 
25.8381 25.8429 14.3503 3 
1.43355 1.43591 18.6549 3 
2.86931 2.87136 17.2201 3 