ITEM: TIMESTEP
34000
ITEM: NUMBER OF ATOMS
2001
ITEM: BOX BOUNDS pp pp pp
0.0000000000000000e+00 2.8712000000000000e+01
0.0000000000000000e+00 2.8712000000000000e+01
0.0000000000000000e+00 2.8712000000000000e+01
ITEM: ATOMS x y z 
1.48852 1.36248 1.28404 
2.75959 2.96774 2.76591 
0.176121 2.97594 2.65536 
0.146594 0.152307 2.73684 
0.0181072 3.04439 0.0579087 
4.21189 1.47826 1.50572 
7.17446 1.51141 1.4583 
5.79367 2.63859 2.86274 
9.99786 1.60303 1.44941 
8.57849 2.70816 2.84392 
11.4284 2.76954 2.86372 
11.2695 0.143902 0.127445 
13.0939 1.42771 1.443 
15.9069 1.4641 1.53171 
14.4454 3.18249 2.78743 
14.4465 0.163901 0.0431369 
18.7305 1.40369 1.4388 
17.3912 2.69939 2.93198 
20.2354 2.75771 2.98916 
17.3459 2.75621 0.137197 
21.4101 1.31069 1.33589 
24.3313 1.26207 1.4545 
22.9527 2.91873 2.93432 
22.9962 2.83407 0.0175057 
27.2212 1.4146 1.21593 
27.3223 1.23225 4.03233 
25.9645 2.69662 2.79216 
1.37577 4.56539 1.40631 
1.41288 7.33849 1.41148 
2.83739 5.84665 2.86021 
4.30578 4.2444 1.46899 
7.14447 4.40684 1.45691 
4.26336 7.26083 1.44166 
7.04483 7.03252 1.32764 
5.73265 5.68512 2.9325 
10.0467 4.27271 1.4025 
10.0217 7.02885 1.4031 
8.74756 5.73274 2.92441 
11.4742 5.67358 2.76264 
11.5454 5.75845 0.0364443 
8.56042 5.71016 0.0673578 
15.8217 4.21457 1.25398 
12.7734 4.33278 1.34453 
13.0826 7.25127 1.52558 
15.834 7.22132 1.41334 
14.3847 5.77376 2.83878 
18.6484 4.29034 1.69528 
18.783 7.31258 1.4657 
17.1551 5.73919 2.68529 
20.0734 5.84932 2.78528 
17.053 5.80363 0.0296393 
20.0031 5.7369 0.0425565 
24.3234 4.25592 1.44756 
21.4372 4.15583 1.36831 
21.4884 7.14305 1.46526 
22.9664 5.66772 2.81568 
24.4188 7.10696 1.3323 
28.7065 5.65403 2.84423 
27.1262 4.34692 1.42306 
27.2269 7.19173 1.3347 
25.6787 5.94701 2.79723 
28.6409 5.8352 0.0749485 
1.47319 10.1496 1.58586 
2.80353 8.5808 2.96531 
3.08739 11.618 2.90569 
0.00934071 11.6143 2.94163 
2.9104 11.468 0.0892508 
4.35719 10.1086 1.43313 
7.04977 10.0399 1.43481 
5.75989 8.73537 2.69896 
5.79866 11.6717 2.7907 
9.97694 10.0119 1.4337 
8.60136 8.5331 2.79862 
11.4665 8.47974 2.66025 
8.56729 11.4899 2.87749 
11.4281 11.6359 2.86978 
8.51664 11.4998 0.216418 
12.8121 10.1468 1.36086 
15.6907 10.0788 1.50018 
14.1516 8.72931 2.91317 
14.2274 11.7079 2.79402 
18.7651 10.1811 1.40306 
17.1428 8.64587 2.85261 
20.0969 8.84975 2.93453 
17.1009 11.4591 2.8697 
20.0036 11.509 2.95857 
22.9005 8.44565 0.0537324 
21.5865 9.90773 1.38788 
24.3884 9.90403 1.61966 
22.8935 8.42646 2.89603 
23 11.348 2.70366 
21.4029 12.2798 1.31382 
25.7387 11.4202 0.156376 
28.6786 8.54905 2.85025 
27.2923 10.1041 1.44583 
25.8094 8.52858 2.87365 
25.9061 11.2851 2.88389 
1.40507 12.9052 1.51421 
1.30739 15.7724 1.33675 
2.7915 14.2722 2.90652 
4.05477 15.7803 1.5222 
2.78527 14.2801 0.0930903 
4.3676 12.9606 1.3653 
7.12943 13.1267 1.37025 
7.35425 15.9689 1.47458 
5.6313 14.4225 2.9395 
5.6844 14.6294 0.111263 
10.0797 12.9109 1.51207 
10.1829 15.9915 1.4657 
8.63798 14.4166 2.76893 
11.3585 14.3873 2.80922 
12.8993 13.0434 1.45206 
15.8743 12.8492 1.37453 
12.9709 15.7886 1.51758 
15.8208 15.9708 1.39973 
12.9304 15.5592 4.09201 
14.3767 14.337 2.80508 
17.2775 14.5153 0.0724321 
18.5029 12.7752 1.30359 
18.675 15.7557 1.45791 
17.1422 14.4321 2.82023 
20.04 14.2114 2.64526 
20.1984 14.2647 0.201276 
22.3052 13.9935 2.11754 
21.4808 15.8684 1.52618 
23.9151 14.8453 3.30729 
24.4538 15.8208 1.17 
24.5247 12.947 1.46147 
23.0204 14.3652 0.108183 
28.6628 14.2106 2.70581 
27.4081 12.6978 1.48721 
27.3013 15.5092 1.25778 
26.0085 14.1712 2.82103 
1.43801 18.5943 1.45167 
2.82723 17.4271 2.82848 
2.68827 20.291 3.01442 
0.152063 20.2009 2.74355 
4.35592 18.6654 1.6123 
7.24203 18.5457 1.42522 
5.68623 17.1922 3.02027 
5.74039 20.0995 2.94454 
5.81251 20.0637 0.100293 
5.64469 17.1064 0.284366 
10.1673 18.7533 1.47315 
8.58607 17.3267 2.94035 
11.6466 17.2203 2.9744 
8.51311 20.0251 2.94992 
11.5949 20.1629 2.86861 
11.4671 20.1754 0.0102513 
13.124 18.5968 1.44066 
15.7136 18.5488 1.44544 
14.4194 17.2079 3.08105 
14.5821 20.0357 2.98013 
14.4046 20.3225 0.0813872 
14.3316 17.12 0.0560042 
20.0864 17.24 0.123179 
18.6619 18.6377 1.34181 
17.2541 17.2236 2.90385 
20.0702 17.1095 2.88228 
17.2812 20.0754 2.89042 
20.1209 20.0134 2.92331 
17.2613 20.2094 0.114086 
17.1347 17.3753 0.0516376 
20.1929 20.0971 0.109786 
21.4486 18.6911 1.4577 
24.4604 18.6788 1.39013 
23.0025 17.365 2.72273 
22.8624 19.8844 3.02784 
23.0948 20.1299 0.0740931 
22.8746 17.1387 0.133925 
28.5835 17.3204 0.0685851 
28.6917 17.1805 2.71845 
27.14 18.6692 1.35668 
25.8794 17.0948 2.64182 
25.8031 20.1024 2.92962 
1.31267 21.5372 1.25855 
2.89368 22.9097 2.71501 
1.49954 24.1917 1.27937 
4.51375 24.3843 1.4489 
4.2594 21.4021 1.39322 
7.20319 21.4563 1.62113 
5.72542 22.9442 2.82481 
7.2257 24.5174 1.48745 
7.21503 24.4212 4.06034 
10.1027 21.3609 1.53313 
8.77701 22.8837 2.76285 
11.4568 22.7927 2.70742 
9.97216 24.3762 1.55971 
8.53754 22.7934 0.131347 
12.9601 21.5418 1.47784 
15.8105 21.4129 1.53479 
14.2955 23.0051 2.77392 
12.9243 24.4186 1.34051 
15.7402 24.3545 1.47315 
14.4124 23.0694 0.0449278 
18.7451 21.2997 1.34326 
18.6765 24.2455 1.45765 
17.1024 22.9259 2.84954 
20.0123 22.8679 2.88827 
21.5281 21.4172 1.55734 
24.2834 21.4957 1.64714 
21.2838 24.3814 1.49231 
22.7541 22.9759 2.84548 
24.2413 24.4066 1.47901 
22.9142 22.9385 0.00708365 
28.4795 22.8733 2.83293 
27.2698 21.34 1.34862 
25.7403 22.8886 2.78798 
27.3689 24.3845 1.32438 
25.9479 22.9298 0.0258336 
2.79895 28.5478 2.89543 
1.63922 27.1497 1.35129 
2.91396 25.6697 2.69335 
2.93999 25.8197 0.116253 
5.73645 28.5432 2.87433 
4.33346 27.317 1.39346 
7.24454 27.1496 1.42921 
5.61795 25.8458 2.9789 
8.66686 28.6882 2.89249 
8.39452 28.6109 0.0381833 
11.5052 25.9131 0.0462735 
11.39 28.6172 2.94062 
10.0156 27.3383 1.37904 
8.6511 25.8805 2.77336 
11.5136 25.9121 2.88829 
14.33 28.6914 2.87685 
12.9041 27.2416 1.50347 
15.6368 27.2503 1.44984 
14.1696 25.8536 2.91908 
17.2416 28.6082 2.80162 
20.2021 28.4786 2.90581 
17.3547 28.5734 0.0354967 
18.6504 27.1767 1.28248 
17.125 26.0042 2.82598 
19.943 26.0336 2.71443 
17.0049 25.7998 0.0904588 
22.8092 28.5954 2.73844 
21.4796 27.1002 1.45225 
22.7265 25.7611 2.87348 
24.4248 27.0902 1.23104 
22.9425 25.8647 0.0023118 
25.8066 28.6935 2.6994 
28.6827 25.8176 2.71341 
27.1364 27.3273 1.28293 
25.8542 25.6461 2.76996 
1.37841 1.44401 4.1478 
1.4214 1.28294 6.87894 
2.87901 2.95436 5.74336 
4.23028 1.37539 4.37979 
7.10214 1.36135 4.36103 
4.41697 1.30696 7.04388 
7.18342 1.50091 7.03541 
5.63539 2.67003 5.59125 
4.27132 4.08646 7.04185 
10.0221 1.43563 4.34834 
9.88751 1.46575 7.17472 
8.56728 2.94657 5.74309 
11.4398 2.7904 5.96702 
12.9941 1.6411 4.29091 
15.8506 1.38986 4.24399 
12.9647 1.47359 7.17569 
15.7432 1.58917 7.25005 
14.434 3.12082 5.80273 
14.2213 0.211273 5.7233 
18.8118 1.1916 4.22921 
18.6827 1.55647 7.10059 
17.3456 2.95611 5.61988 
20.2076 2.74443 5.70816 
17.1612 0.107821 5.80337 
21.6704 1.22444 4.26324 
24.3322 1.31836 4.23662 
24.3771 4.10043 4.32447 
21.5728 1.33223 7.18385 
24.3011 1.16708 7.19072 
23.0732 2.76925 5.64621 
27.3913 4.08313 4.13733 
28.6723 2.82978 5.6273 
27.1624 1.32949 7.07223 
25.7977 2.55116 5.74542 
1.56668 4.21114 4.15898 
1.37587 7.10489 4.21629 
1.42622 4.35548 7.1827 
1.20722 7.15139 7.24428 
3.02348 5.64186 5.70095 
4.39348 7.19792 4.42111 
7.0623 4.25652 4.28131 
4.22547 4.15345 4.12217 
7.24822 7.26836 4.28699 
7.15043 4.28391 7.05599 
4.24407 6.90595 7.08328 
5.80539 5.66181 5.70413 
7.14403 7.17279 7.03054 
10.0128 4.30923 4.31081 
10.0345 7.32426 4.25933 
10.0802 4.4806 7.24176 
8.55406 5.63959 5.60043 
9.89922 7.24837 7.18321 
11.2903 5.9071 5.67905 
15.8653 4.47427 4.27828 
12.7042 4.22826 4.27605 
12.7347 7.15198 4.14103 
15.8953 7.14478 4.30227 
12.8399 4.31599 7.20204 
15.7743 4.42817 7.35742 
12.8414 7.12442 7.08863 
14.1958 5.80804 5.64632 
15.914 7.29856 7.04038 
18.8092 4.3729 4.36924 
18.5749 7.24778 4.21349 
18.7589 4.4433 7.10236 
17.2073 5.79434 5.76313 
18.692 7.32837 7.22637 
20.1018 5.9318 5.70344 
21.463 4.41345 4.24513 
21.3452 7.16524 4.21025 
24.5096 7.15189 4.45538 
24.3738 4.43725 7.06003 
21.448 4.31715 7.26375 
21.5309 7.26263 7.17811 
22.9683 5.64366 5.53747 
24.4013 6.93383 7.13942 
27.145 7.15672 4.35798 
28.6658 5.70395 5.66988 
27.2722 4.31027 7.11933 
25.8942 5.46858 5.75537 
27.3448 7.03124 7.16305 
1.51292 10.1761 4.11018 
1.49488 10.0761 6.94833 
2.69786 8.3503 5.70837 
2.96128 11.4052 5.70916 
0.066534 8.4976 5.63362 
4.36792 10.1626 4.27761 
7.20319 10.0789 4.22005 
4.29901 9.97412 6.92929 
5.75866 8.5038 5.65396 
7.01206 10.1682 7.10596 
5.8484 11.5136 5.63759 
10.1312 9.9458 4.47395 
8.5218 8.75585 5.70092 
10.109 9.92744 7.02533 
11.5156 8.62702 5.77501 
8.65823 11.3484 5.62253 
11.6218 11.6063 5.77222 
12.8949 9.95359 4.31269 
15.4938 10.1806 4.36664 
12.73 10.1752 7.26354 
14.291 8.70055 5.76151 
15.6058 10.2832 7.17592 
14.1728 11.6895 5.66409 
18.4953 10.0451 4.2558 
17.0112 8.77252 5.70089 
18.6449 10.0414 7.11656 
20.1125 8.69908 5.71571 
17.1724 11.6935 5.6729 
20.1134 11.5536 5.5413 
21.6599 9.94469 4.33903 
24.477 9.91473 4.24499 
21.5483 10.2999 7.02415 
23.1015 8.62209 5.53658 
23.0631 11.5382 5.67454 
24.2661 10.0437 7.18605 
27.3998 9.92274 4.24846 
28.6545 11.4089 5.62916 
25.7825 8.5654 5.88642 
27.4559 9.94914 7.09234 
25.9318 11.1683 5.70562 
1.50484 13.0028 4.22516 
1.53999 15.9505 4.29229 
4.09817 15.9284 4.26429 
1.38267 12.8339 7.00701 
1.58971 15.8478 7.26752 
2.84651 14.3827 5.75258 
0.123839 14.3816 5.67905 
4.3394 12.8408 4.41728 
7.15237 13.085 4.29678 
7.21703 15.7562 4.12938 
4.42103 15.9987 7.00258 
4.41669 12.9146 7.08823 
7.30395 12.8139 7.29282 
5.68829 14.324 5.76456 
7.22475 15.9051 7.27822 
9.90841 12.8305 4.34455 
10.0601 15.8944 4.33057 
10.0892 12.8771 7.22647 
8.72684 14.3645 5.80959 
10.0252 15.8433 7.09461 
11.3794 14.3314 5.73178 
12.765 13.0029 4.27844 
15.667 12.909 4.34395 
15.6131 15.5879 4.23841 
12.924 13.0225 7.27502 
15.8554 12.9593 7.32312 
12.9265 15.7955 7.30096 
14.2177 14.3972 5.79781 
15.7519 15.681 7.35547 
18.6323 13.0029 4.12376 
18.5767 15.8237 4.28326 
18.6488 12.899 7.11699 
17.1256 14.32 5.67602 
18.5721 15.5566 7.11699 
20.1379 14.3822 5.75252 
21.8787 12.9444 4.27705 
21.5459 15.8249 4.30737 
24.5176 12.7206 4.18725 
21.6502 12.9197 7.12144 
21.541 15.7493 7.28274 
23.1515 14.5339 5.71733 
24.4723 15.8502 7.38204 
24.5682 12.9448 7.02968 
27.2741 12.8841 4.29072 
27.4166 15.7711 4.3464 
24.9006 16.2551 4.81031 
27.4679 12.8296 7.04258 
25.924 14.4514 5.74269 
27.4125 15.8449 7.38998 
1.32457 18.6342 4.14913 
1.40785 18.708 7.14978 
2.80835 17.3068 5.68022 
2.87567 20.2889 5.74398 
4.24424 18.603 4.24806 
7.14064 18.6259 4.37274 
4.22573 18.6834 7.08538 
5.84526 17.1125 5.72629 
7.02375 18.8202 7.18349 
5.60626 20.1243 5.60399 
10.0957 18.7066 4.43776 
8.57587 17.4234 5.85392 
10.1029 18.6443 7.23508 
11.847 17.1499 5.74815 
8.53923 19.9745 5.98648 
11.6911 20.0563 5.8634 
12.8663 18.699 4.23875 
15.9289 18.4271 4.35736 
12.8863 18.4452 7.37157 
14.2951 17.1614 5.73836 
15.7445 18.5068 7.12346 
14.4672 19.8904 5.89218 
18.6111 18.6208 4.3538 
17.187 17.0846 5.79298 
18.642 18.5548 7.12403 
19.9046 17.0886 5.75818 
16.8939 20.0466 5.74954 
19.9109 20.0061 5.70341 
21.5716 18.4301 4.20104 
24.4077 18.6755 4.24352 
21.4432 18.6714 7.21766 
22.9151 17.0485 6.07088 
22.8192 20.015 5.68698 
24.2885 18.7486 7.23436 
27.3151 18.6309 4.18767 
28.6402 19.9921 5.6757 
28.6351 17.3078 5.84063 
26.2661 17.462 5.94523 
27.274 18.8044 7.43701 
25.8385 19.9523 5.8086 
1.23799 21.5835 4.29404 
1.63455 24.202 4.40416 
1.31752 21.3708 7.17849 
2.82376 22.8707 5.76436 
1.28808 24.4036 6.97278 
4.29094 21.8063 4.31717 
7.15504 21.4738 4.49482 
4.2877 24.2136 4.10365 
4.40929 21.6208 7.15522 
7.24143 21.4233 7.03735 
4.27192 24.332 7.1403 
5.74075 23.0921 5.77851 
7.28625 24.4432 7.15851 
10.1161 21.2667 4.36881 
10.003 24.5218 4.12302 
9.99957 21.3793 7.22173 
8.70491 22.8619 5.61376 
10.0013 24.3973 7.04719 
11.4 22.9087 5.66344 
13.1372 21.5355 4.3559 
15.7753 21.5526 4.17502 
12.9716 24.2613 4.3137 
15.7473 24.5851 4.33499 
12.7757 21.4881 7.25167 
15.7432 21.5394 7.2438 
14.3925 22.743 5.88605 
15.6738 24.4769 7.34677 
12.8345 24.3127 7.27976 
18.6391 21.6356 4.31082 
18.7843 24.4447 4.16666 
18.3602 21.56 7.16796 
17.085 22.9752 5.70958 
20.0049 22.9111 5.76565 
18.6233 24.4154 7.04266 
21.5174 21.5727 4.4351 
24.3582 21.4203 4.33865 
24.3428 24.3569 4.19291 
21.5189 24.5434 4.31771 
21.5029 21.5844 7.19955 
21.3121 24.5133 7.10294 
23.0142 23.0774 5.78051 
24.2433 24.4489 7.13989 
24.3317 21.4251 7.04881 
27.1887 21.4602 4.48776 
27.1104 23.9894 4.2932 
28.6877 22.9141 5.68615 
27.1781 21.5461 7.24292 
25.6945 22.8774 5.65944 
27.3967 24.2186 7.1136 
1.36466 27.231 4.18391 
2.82439 28.5685 5.67421 
1.12812 27.2235 6.99784 
2.90082 25.7931 5.9576 
4.31514 27.1567 4.35275 
6.9983 27.2258 4.33994 
5.64919 28.4974 5.84838 
4.21052 27.2371 7.26818 
5.68824 25.7258 5.91348 
7.04981 27.2341 7.25707 
9.97317 27.1863 4.37366 
8.51085 28.6568 5.87396 
11.5259 28.6022 5.68749 
8.49484 25.8788 5.57152 
9.77466 27.16 7.10834 
11.5087 25.7352 5.7633 
12.8389 27.2773 4.23927 
15.8874 27.3193 4.25269 
12.9153 27.398 7.0928 
14.2502 25.7141 5.81312 
15.8288 27.4306 7.27275 
18.5711 27.4533 4.39297 
20.0701 28.6197 5.87306 
17.1556 25.8197 5.69318 
18.4431 27.4888 7.26161 
19.9758 25.9464 5.70608 
21.5013 27.1037 4.53677 
24.4003 27.1359 4.14038 
23.0655 28.3625 5.56988 
21.7646 27.2269 7.14772 
23.0581 25.7277 5.75779 
24.5859 27.2881 7.3409 
27.2228 27.2273 4.25283 
28.6334 28.6691 5.56685 
25.8816 28.6446 5.6158 
28.697 25.6286 5.47722 
25.881 25.7672 5.68118 
27.346 27.0569 7.25623 
3.00973 2.82951 8.4019 
0.00146685 2.83957 8.37154 
1.41332 1.42149 9.93817 
2.99708 2.91023 11.5013 
0.0524042 2.94302 11.4265 
5.6316 2.84183 8.53742 
4.24246 1.39694 9.99345 
7.06647 1.20789 10.1989 
5.66754 2.78261 11.5672 
5.62602 0.00438814 11.6544 
8.71616 2.85837 8.57596 
11.4435 2.66656 8.62674 
8.42223 0.0266254 8.66975 
10.0978 1.24115 10.0881 
8.4997 2.68929 11.2283 
11.4175 2.77273 11.3246 
14.4305 2.98348 8.61435 
14.509 0.15543 8.77312 
13.0912 1.16822 10.1645 
15.807 1.65669 10.0167 
14.2605 3.06114 11.4372 
17.2347 2.98574 8.55749 
20.075 3.03965 8.55794 
17.2716 0.0112588 8.73882 
20.0456 0.249842 11.4565 
17.4406 0.301651 11.4685 
18.8016 1.7256 9.94053 
17.4277 3.06626 11.3836 
20.2913 3.03723 11.6477 
22.9998 2.99276 8.48406 
22.9812 0.145165 11.644 
21.5902 1.36492 9.97382 
24.3328 1.4101 9.97545 
22.9514 3.13114 11.3203 
25.7849 2.82885 8.60853 
25.881 0.0481994 11.3974 
28.3776 0.00295824 11.3405 
27.3036 1.44639 9.87329 
25.7181 2.88128 11.35 
3.01006 5.4555 8.57726 
1.45874 4.32819 10.1563 
1.46568 7.18346 10.1167 
2.86963 5.725 11.5278 
0.0452326 5.70998 11.538 
5.77987 5.74758 8.55457 
4.38532 4.18416 10.0105 
4.26331 7.13117 9.83308 
7.21749 4.11738 9.76024 
7.01682 7.16669 10.0768 
5.73271 5.78508 11.4054 
8.46023 5.7772 8.42908 
11.6241 5.73711 8.5579 
10.1698 4.45938 9.94334 
10.0279 7.25473 10.0346 
8.39791 5.82999 11.2051 
11.4253 5.70624 11.4313 
14.4211 5.84662 8.55966 
15.9147 4.45353 10.0601 
12.8586 4.16275 10.0052 
12.9582 7.22939 9.96477 
15.8249 7.17657 10.0217 
14.3412 5.73698 11.4072 
17.3242 5.8593 8.63207 
20.0646 5.92531 8.60908 
18.7722 4.53622 10.07 
18.8051 7.46503 10.1778 
17.2152 5.93828 11.4572 
20.1562 5.94453 11.5403 
22.9073 5.73835 8.44403 
21.3257 4.42655 9.97602 
21.4445 7.40079 10.0821 
22.8652 5.74353 11.3245 
24.3579 7.22722 9.98761 
24.3795 4.32778 10.0201 
28.558 5.67719 8.81302 
25.7945 5.62939 8.64689 
27.2453 4.26396 10.0062 
27.2466 7.31721 10.0303 
25.7772 5.68987 11.4453 
2.87552 8.46679 8.43446 
2.96543 11.4613 8.487 
1.50189 10.1026 9.90613 
2.84624 8.54289 11.5603 
2.86779 11.4447 11.6505 
5.70537 8.50469 8.62897 
5.69939 11.6391 8.71067 
4.27678 9.83451 9.97635 
7.04804 9.9755 9.88974 
5.68155 8.79971 11.4128 
5.52531 11.5342 11.4065 
8.52935 8.62252 8.6301 
11.3993 8.53029 8.50243 
8.66902 11.3687 8.70591 
11.5061 11.4529 8.62433 
10.0758 10.0704 10.0166 
8.50972 8.78274 11.4742 
11.4549 8.71638 11.2917 
8.6059 11.5706 11.3824 
11.6834 11.4429 11.3253 
14.3879 8.65679 8.49927 
14.3522 11.6184 8.62618 
13.0125 9.92277 9.78454 
15.7432 10.1598 9.95495 
14.294 8.54287 11.4284 
14.3145 11.306 11.5203 
17.2073 8.86826 8.56914 
20.0556 8.74825 8.57745 
17.3489 11.4797 8.68406 
19.9826 11.5149 8.52393 
18.6273 10.0348 9.97079 
17.2275 8.43187 11.435 
20.078 8.77589 11.603 
17.1366 11.4418 11.5527 
19.9857 11.5122 11.3965 
22.8495 8.7555 8.40054 
22.9331 11.7155 8.51181 
21.4959 10.2483 9.9111 
22.7778 8.87682 11.5447 
22.9226 11.7067 11.2936 
24.3547 10.1223 10.0244 
28.6602 11.53 8.71684 
28.6996 8.61587 8.66342 
25.8232 8.59837 8.59917 
25.8443 11.516 8.49338 
28.6546 8.6565 11.3929 
28.5264 11.3895 11.6312 
27.2346 10.0976 9.89428 
25.6255 8.73875 11.5119 
25.8364 11.4103 11.321 
2.91983 14.1929 8.55851 
1.4285 12.901 10.0169 
1.64415 15.6953 9.95793 
2.85369 14.322 11.5742 
0.026188 14.4019 11.4798 
5.76096 14.3232 8.51057 
4.20879 12.9794 9.9968 
7.18616 13.0415 9.93413 
4.31908 15.8222 9.94925 
6.99365 15.7761 10.2161 
5.67279 14.4476 11.5425 
8.69503 14.3642 8.95397 
11.2713 14.4746 8.66342 
10.1224 12.8862 10.2564 
10.0391 15.8507 10.3109 
8.65838 14.2382 11.53 
11.5224 14.2211 11.6183 
14.2384 14.4145 8.74607 
13.0205 12.9351 9.99209 
15.8656 12.9438 10.1811 
13.0113 15.8444 10.1304 
15.8789 15.7623 10.009 
14.4612 14.3642 11.4818 
17.2115 14.417 8.74831 
19.9464 14.3566 8.34997 
18.5931 12.8725 10.0745 
18.7975 15.7252 10.0223 
17.3303 14.4271 11.435 
20.1895 14.5442 11.7267 
22.9284 14.553 8.74937 
21.5753 13.138 9.90568 
21.6467 15.9226 10.0213 
22.9748 14.3602 11.4605 
24.3651 15.8226 10.2127 
28.557 14.3195 8.63648 
25.9169 14.3704 8.7126 
24.6283 12.9633 9.87653 
27.4075 13.0321 10.049 
27.287 15.7427 10.0894 
25.8118 14.3052 11.591 
2.88999 17.3979 8.6483 
2.98282 20.2027 8.44067 
0.065881 17.2212 8.71335 
0.102383 20.2875 8.62573 
1.49257 18.6319 10.0439 
2.9555 17.2334 11.3999 
2.76671 20.0135 11.5486 
0.217487 17.1241 11.3173 
0.101078 20.0395 11.2809 
5.70309 17.1618 8.73337 
5.6796 20.1108 8.66719 
4.31201 18.6931 10.096 
7.04969 18.6514 10.1874 
5.71915 17.4091 11.6455 
5.38322 20.1399 11.6906 
8.51039 17.2164 8.82307 
11.4698 17.1674 8.78245 
8.60301 19.9885 8.72083 
11.5433 19.7683 8.68602 
9.9901 18.6548 10.2456 
8.49199 17.1765 11.5668 
11.508 17.2351 11.6007 
8.51833 19.9563 11.5556 
11.3895 19.9256 11.4394 
14.4249 17.0554 8.68704 
14.2487 20.0474 8.58728 
13.0499 18.6129 10.1232 
15.7396 18.6935 10.062 
14.5393 17.3232 11.6072 
14.4295 20.0659 11.6026 
17.4609 17.2623 8.74038 
20.0519 17.1779 8.69766 
17.102 20.1188 8.72441 
20.0487 20.1591 8.70929 
18.6931 18.7476 10.1027 
17.2843 17.1908 11.6233 
20.2372 17.1366 11.5299 
17.3574 20.1971 11.6719 
20.1937 20.0689 11.3366 
23.0673 17.3823 8.82341 
22.9134 20.0803 8.70605 
21.5084 18.6952 10.1403 
23.0471 17.2725 11.5689 
23.0289 20.2257 11.6227 
24.5353 18.7173 10.3006 
25.7062 17.2694 8.72077 
25.7931 20.028 8.76174 
27.3412 18.5619 10.0629 
25.7865 17.1621 11.45 
26.0027 20.1908 11.461 
2.76115 22.929 8.40496 
0.14225 22.913 11.5267 
1.6304 24.4007 10.0576 
1.56165 21.6088 10.0838 
2.98254 22.9121 11.5748 
5.86361 22.9582 8.57345 
4.13385 24.3038 9.93582 
7.22498 24.3036 10.0214 
4.28297 21.6614 9.96358 
7.19093 21.4602 10.0215 
5.8791 22.7745 11.4912 
8.68125 23.0481 8.53828 
11.4361 22.9752 8.54638 
10.0518 24.4073 10.0748 
9.98849 21.4195 10.035 
8.4917 23.0149 11.4644 
11.3846 23.1351 11.4313 
14.2447 22.8664 8.71903 
12.8162 21.5202 10.0597 
15.7401 21.4334 10.0668 
13.0981 24.5769 10.0786 
15.8227 24.3433 10.03 
14.0995 22.8919 11.6125 
17.2023 22.991 8.52701 
20.0454 23.2108 8.57419 
20.1426 23.0342 11.4522 
18.5714 21.7325 10.1992 
18.5476 24.3996 10.1241 
17.1437 23.1546 11.6359 
22.9538 22.9782 8.48615 
23.0473 23.0149 11.5516 
24.2521 24.3458 9.94727 
24.4319 21.6882 9.86166 
21.7699 21.655 9.90781 
28.6624 23.2111 8.64277 
25.6785 23.0456 8.66652 
27.3726 21.6547 9.92105 
27.2373 24.2755 10.2468 
25.706 22.9261 11.5074 
2.78291 28.527 8.5479 
0.0944718 28.6378 8.5319 
2.72547 25.7382 8.55883 
0.0174634 25.7431 11.6267 
2.99746 28.4955 11.5375 
3.01747 25.7912 11.4702 
1.29293 27.2134 10.0768 
5.61734 28.5782 8.73003 
5.5178 25.8224 8.76287 
4.29778 27.2109 10.2377 
7.26332 27.235 10.0028 
5.83192 25.7082 11.4837 
11.373 28.6675 8.40785 
8.58303 25.8859 8.62876 
11.6364 25.8138 8.55862 
9.97357 27.2782 9.86235 
8.5938 25.9686 11.3681 
8.56016 28.6951 11.5021 
11.5823 28.682 11.4445 
11.4223 25.9497 11.3702 
14.3451 25.9338 8.57826 
12.9306 27.2969 9.92685 
15.9503 27.3934 9.94723 
14.5402 25.912 11.52 
14.426 28.681 11.412 
20.0994 28.7088 8.56483 
17.2361 25.9034 8.65441 
20.0438 25.9236 8.51473 
20.0575 26.0841 11.4633 
18.6931 27.3038 10.0783 
17.3594 25.8865 11.5536 
22.9587 28.6474 8.68765 
22.9522 25.693 8.62111 
23.0179 25.9254 11.4195 
24.3315 27.3513 9.95071 
21.5104 27.2877 9.99268 
21.4323 24.6328 9.98349 
26.024 28.5244 8.7283 
28.6193 25.8442 8.55587 
25.8317 25.7015 8.60043 
25.8802 25.8635 11.4292 
27.2938 27.2259 10.0963 
1.38164 1.40741 12.8669 
0.0236078 0.056477 14.3075 
1.33653 1.39828 15.7185 
2.77538 2.87296 14.4032 
4.18904 1.57367 13.1128 
7.03565 1.47338 12.9215 
4.2671 1.48314 15.9107 
7.13945 1.67905 15.9544 
5.79374 2.97963 14.5339 
8.48392 0.0752147 14.113 
9.93755 1.46994 12.8824 
8.60341 2.96197 14.129 
11.4267 2.88625 14.2988 
11.5148 0.225537 14.1037 
10.0308 1.22317 15.5374 
12.8039 1.58836 12.8242 
15.7903 1.63685 12.6061 
14.503 2.9376 14.234 
14.6402 0.100987 14.2681 
13.132 1.48328 15.6472 
16.0554 1.37057 15.7571 
18.6021 1.59247 12.9251 
17.0346 3.08036 14.2786 
17.3241 0.184464 14.3056 
18.6581 1.50529 15.6969 
19.9843 2.96637 14.385 
21.5294 1.61638 13.1085 
24.2572 1.59499 12.7805 
22.9786 2.93696 14.2755 
22.9753 0.072556 14.3021 
21.5827 1.63506 15.7856 
24.4046 1.57112 15.679 
27.4295 1.47213 12.8783 
25.7104 2.89238 14.0772 
25.626 0.107886 14.171 
28.6895 2.95483 14.0721 
27.1725 1.668 15.5996 
1.61219 4.40337 12.9618 
1.49844 7.17104 12.9133 
1.55878 4.28991 15.9592 
1.56005 7.12936 15.9758 
2.79818 5.61764 14.4087 
4.33753 4.36809 13.0111 
4.17536 7.06442 12.9406 
7.16025 4.27825 12.7963 
6.91342 7.18008 12.8221 
4.20089 4.36399 15.7263 
4.37112 7.22359 15.6028 
7.22412 4.34229 15.9999 
7.24289 7.29243 15.9562 
5.73641 5.75058 14.3574 
9.86083 4.38627 12.6539 
10.0022 7.0851 12.7561 
11.5612 5.69248 14.256 
10.0867 4.2163 15.6291 
10.0007 7.10909 15.6025 
8.60987 5.79687 14.3781 
15.9034 4.36074 12.6581 
12.8236 4.38423 12.8138 
12.793 7.29389 12.9242 
15.8138 7.07692 12.9136 
14.3862 5.83558 14.3493 
13.0267 4.23825 15.6626 
15.8165 4.30599 15.9363 
12.986 7.11303 15.6717 
15.9478 7.41978 15.8141 
18.5738 4.46911 13.1308 
18.8786 7.22985 12.9408 
18.5136 4.36551 15.8696 
18.7079 7.12747 15.9246 
17.2848 5.83186 14.4581 
20.0168 5.83491 14.4134 
21.603 4.68975 12.9865 
24.4154 4.80361 13.1113 
21.4309 7.38781 12.9737 
24.1665 7.20993 12.7201 
21.7873 4.47992 15.6283 
24.4578 4.18898 15.7996 
21.464 7.26067 15.7743 
24.3762 7.10615 16.0489 
23.0574 5.85009 14.5321 
27.0934 4.26323 12.8328 
27.2543 7.34171 12.7463 
27.3004 4.19139 15.9074 
27.2877 7.10881 15.8286 
28.6911 5.57018 14.4467 
26.0168 5.77281 14.4392 
1.3101 9.98814 12.7066 
1.21605 9.92878 15.7574 
0.0031657 8.57276 14.3808 
2.75636 8.56451 14.453 
2.59211 11.419 14.3572 
4.14965 10.0499 13.0551 
6.98486 10.2122 12.8219 
4.24947 10.1836 15.8 
7.23936 9.97138 15.7446 
5.87246 8.66419 14.373 
5.65024 11.3603 14.4215 
10.0487 10.215 12.7468 
11.4219 11.4469 14.1546 
8.58531 8.62622 14.0834 
8.52455 11.406 14.3308 
10.0674 10.085 15.5591 
11.4286 8.6622 14.4055 
12.8021 9.92491 12.8636 
15.7122 9.95674 12.9536 
12.9637 10.0999 15.8831 
15.7622 9.91826 15.8987 
14.3519 8.63149 14.3574 
14.3612 11.4771 14.4747 
18.574 9.95791 12.7222 
17.4217 8.68825 14.2519 
20.0447 8.83197 14.3353 
17.3868 11.3799 14.3538 
18.4484 9.97143 15.9336 
19.9586 11.5694 14.473 
23.0398 11.505 14.3547 
21.47 10.1887 12.8709 
24.3425 10.2542 12.777 
22.9602 8.74796 14.3461 
21.4458 10.1533 15.8853 
24.3857 10.0163 15.9761 
28.4591 11.2756 14.3189 
26.9334 9.95481 12.9288 
25.5994 8.52801 14.2456 
27.179 9.93708 15.8563 
25.7898 11.4487 14.5545 
2.83297 14.3161 14.321 
1.45149 12.8121 13.0242 
1.4499 15.8247 12.9624 
1.26806 12.7626 15.9081 
1.27943 15.6575 15.7711 
0.0599794 14.2322 14.4113 
4.21026 12.9534 13.0197 
7.11464 12.9361 12.9117 
4.32604 15.7402 12.9457 
7.05064 15.6365 12.9298 
4.34457 15.7623 15.7912 
4.13658 12.8421 15.8304 
7.28926 12.6599 15.8164 
7.17803 15.7816 15.889 
5.72429 14.1033 14.5304 
10.1234 12.6913 12.93 
10.0071 15.6459 12.7639 
8.55529 14.2052 14.0478 
9.85521 12.9823 15.6786 
10.0282 15.9557 15.7557 
11.5288 14.4254 14.3926 
13.0027 12.8535 12.9803 
15.9577 13.0365 13.0778 
12.8543 15.7874 12.9231 
15.7554 15.9217 12.993 
12.7653 12.8036 15.7501 
15.7535 12.8222 15.791 
12.7764 15.9335 15.7253 
15.6962 15.8699 15.9434 
14.4553 14.3785 14.4476 
18.5712 12.9225 12.9417 
18.6337 15.8692 12.9481 
18.5791 13.0147 15.7498 
18.6227 15.8349 15.7854 
20.1313 14.2892 14.4562 
17.1084 14.5479 14.41 
21.4922 12.8976 12.9367 
21.5299 15.9786 13.0878 
24.3442 12.9152 12.9371 
24.5365 15.8969 13.0432 
21.5311 12.9395 15.7807 
24.4155 13.0042 15.8126 
21.639 15.7732 15.9563 
24.4686 15.6806 15.8258 
23.0543 14.5399 14.4916 
27.3124 12.8985 12.9624 
27.3498 15.7331 12.9506 
27.3323 13.118 15.7868 
27.3593 15.7292 15.8262 
25.8548 14.3728 14.3682 
1.52451 18.7364 12.8537 
0.0118371 20.0533 14.3322 
1.21255 18.5794 15.8285 
0.00358194 17.2105 14.3665 
2.73092 16.9614 14.3997 
2.77873 19.9655 14.5012 
4.33585 18.6093 13.2708 
7.18999 18.7294 13.055 
4.50573 18.5763 15.7765 
7.23976 18.5222 15.658 
5.66588 19.9994 14.5302 
5.86583 17.0261 14.3695 
11.389 17.2763 14.294 
8.65548 17.2323 14.0773 
10.0477 18.7594 13.0659 
9.95952 18.7007 15.8464 
11.4032 20.0931 14.4624 
8.55255 20.1451 14.3724 
12.9836 18.5939 12.8639 
15.8861 18.6169 12.8999 
12.8731 18.7097 15.8332 
15.7476 18.7112 15.9358 
14.3396 17.2222 14.45 
14.3323 19.9144 14.3778 
20.2084 20.0894 14.3127 
18.6676 18.734 13.0573 
17.1672 17.414 14.2942 
18.6336 18.7118 15.8076 
20.1919 17.1642 14.5132 
17.2522 20.0374 14.3634 
21.5016 18.6026 12.9611 
24.5451 18.667 12.9396 
22.9103 20.1117 14.2813 
22.9922 17.1304 14.5298 
21.4507 18.6371 16.047 
24.4452 18.5191 15.7216 
27.3836 18.5647 12.7573 
26.05 17.1431 14.3321 
27.3429 18.5954 15.9316 
25.8968 20.133 14.4088 
1.41171 21.6656 13.1206 
1.67925 24.2342 12.7897 
1.53573 21.6232 15.8302 
1.41369 24.3609 15.8502 
0.0393695 22.943 14.4689 
2.99856 23.0372 14.4823 
4.19899 21.4566 13.0942 
7.1381 21.7104 13.1154 
4.27209 24.4298 12.9414 
7.17342 24.5053 12.8072 
4.32478 24.4647 16.0451 
4.16348 21.3394 15.8531 
7.08025 21.4248 15.6823 
7.23901 24.5247 15.7937 
5.5248 23.0253 14.4391 
9.95289 24.454 12.9159 
9.87507 21.4585 13.1426 
11.3465 23.1016 14.3418 
8.47151 23.1237 14.3771 
10.0776 21.6165 15.8545 
10.1654 24.491 15.8433 
15.5806 24.4619 12.8428 
12.7733 21.3812 12.9053 
15.8048 21.6862 12.9554 
14.173 22.9677 14.1834 
12.8767 21.471 15.7931 
15.7947 21.4273 15.8125 
13.0908 24.3679 15.6269 
15.7534 24.4436 15.7554 
18.6256 21.6107 12.8313 
18.6347 24.3947 13.0007 
18.7104 21.3612 15.5753 
18.6547 24.4845 15.7332 
19.9947 23.0439 14.5807 
17.1617 23.0069 14.579 
24.393 21.4416 12.9806 
21.4726 21.7465 12.8442 
23.0801 22.994 14.2965 
24.3287 24.5791 12.9041 
21.3549 24.446 13.0054 
21.5911 21.5173 15.6647 
21.6516 24.3719 15.7158 
24.5822 24.5431 15.7131 
24.4035 21.5675 15.9755 
27.3545 21.6443 12.9443 
27.1321 24.0623 12.9558 
27.1643 21.6967 15.7623 
27.2879 24.2634 15.8126 
25.7236 23.0985 14.4176 
2.97724 28.5787 14.3009 
1.3563 27.4137 13.0587 
2.94885 25.736 14.3329 
1.39785 27.2428 15.7901 
0.0619019 25.8592 14.378 
5.73948 28.6978 14.3089 
4.38895 27.3281 12.8759 
7.30612 27.2364 13.0396 
5.7787 25.8921 14.3361 
4.27475 27.0553 15.7245 
7.3538 27.4545 15.659 
11.4855 25.9534 14.3379 
10.1882 27.3085 12.9615 
10.2707 27.2059 15.8714 
8.78119 25.9428 14.3962 
12.9777 27.3833 12.7247 
15.9157 27.3296 13.0739 
14.3137 26.0964 14.2999 
12.9244 24.6164 12.7916 
13.0557 27.4537 15.6617 
15.7012 27.2824 15.795 
17.1619 25.9996 14.3238 
18.7109 27.4697 12.8678 
20.159 25.8524 14.3427 
20.0699 28.6703 14.2978 
18.6362 27.3631 15.7243 
21.5303 27.2269 12.8717 
24.3778 27.3258 12.9024 
21.7225 27.3477 15.6977 
24.5916 27.3162 15.765 
23.1009 25.7104 14.4365 
27.2865 27.2901 12.8702 
27.4312 27.4508 15.7888 
25.9593 25.8499 14.427 
1.3997 1.42622 18.6402 
2.86258 2.74925 17.2859 
2.99058 0.0329646 17.2584 
0.0429642 2.81422 17.1294 
2.94095 2.88152 20.2734 
0.0706677 2.93886 20.059 
0.0195171 0.115463 20.0098 
4.13867 1.48352 18.7707 
7.07313 1.32236 18.6233 
5.4594 2.93504 17.309 
5.64893 0.149337 17.2761 
7.34066 4.09464 18.5691 
5.81551 2.99183 20.0108 
5.76975 0.0454067 20.2832 
10.0554 1.47382 18.6257 
8.73944 2.94011 17.0877 
11.5433 2.78851 17.0397 
8.77141 0.0392735 17.0671 
8.68684 2.68653 20.069 
11.4054 2.92805 20.0644 
11.3707 0.0179142 20.1619 
12.8899 1.60218 18.5738 
15.7415 1.67872 18.7744 
14.3297 2.85956 17.1234 
14.4292 0.183823 17.3407 
14.4275 3.01936 20.0882 
14.3833 0.0693091 19.9728 
18.7502 1.49329 18.8088 
17.2491 2.88136 17.3373 
20.0491 2.96459 17.281 
17.162 0.160123 17.3251 
19.9203 0.0965762 17.1728 
17.2037 3.07779 20.3187 
20.1072 2.96368 20.1844 
17.1471 0.00662061 20.0707 
21.3512 1.46989 18.6092 
22.9056 2.87631 17.2797 
23.0285 0.0778585 17.0893 
23.0236 2.88471 20.1646 
22.9306 0.204747 19.982 
24.6121 1.39385 18.5816 
27.2525 1.59222 18.7039 
25.8855 2.78168 17.2523 
28.6298 0.0683703 17.1072 
25.9536 2.85694 20.1631 
26.0199 0.0418529 20.1543 
1.50568 4.27719 18.7694 
1.37025 7.13202 18.8781 
2.86909 5.74134 17.2833 
2.91738 5.89804 20.1147 
0.0232882 5.7014 20.087 
4.30489 4.45234 18.6869 
4.31737 7.25068 18.6232 
5.7651 5.77088 17.2501 
7.229 7.31559 18.5433 
5.93735 5.78754 19.7981 