ITEM: TIMESTEP
36000
ITEM: NUMBER OF ATOMS
2001
ITEM: BOX BOUNDS pp pp pp
0.0000000000000000e+00 2.8712000000000000e+01
0.0000000000000000e+00 2.8712000000000000e+01
0.0000000000000000e+00 2.8712000000000000e+01
ITEM: ATOMS x y z 
1.49521 1.61557 1.45931 
2.81458 2.88271 2.80736 
2.85008 3.00141 0.074988 
4.24107 1.3005 1.55696 
7.03341 1.46792 1.45744 
5.83352 2.96761 3.00951 
5.8819 0.0504546 2.97006 
5.45002 2.73078 0.103619 
10.2153 1.51663 1.42423 
8.77211 2.81148 2.97875 
11.6781 2.93041 2.89039 
11.6917 0.0803749 2.99302 
8.57449 2.92325 0.163131 
13.1268 1.49893 1.40779 
15.7726 1.43674 1.1425 
16.0591 1.5668 4.0719 
14.267 2.95192 2.87269 
14.4153 0.0241923 2.80741 
18.6883 1.52648 1.22343 
17.2467 2.91365 2.78835 
20.1857 2.92016 2.80626 
17.1231 0.0721261 2.70457 
20.1798 0.0928611 2.80336 
20.2274 2.96319 0.0299413 
21.634 1.39029 1.35005 
24.4091 1.49637 1.3878 
22.8837 2.84132 2.74019 
28.662 2.83434 2.96603 
27.2577 1.57911 1.36195 
25.8576 3.00298 2.84267 
28.6522 0.0937548 2.62533 
25.8053 0.096447 2.95987 
28.665 0.136274 0.00258858 
1.52585 4.38024 1.31771 
1.37584 7.19325 1.55593 
2.92438 5.78927 2.73301 
2.90764 5.86456 0.0463219 
4.28425 4.39216 1.47487 
7.17041 4.27246 1.49843 
4.24084 7.21864 1.5098 
7.13251 7.10125 1.40585 
5.65384 5.77335 2.98516 
10.0169 4.28218 1.46418 
9.91628 7.21944 1.68475 
8.63917 5.87125 2.91335 
11.6488 5.77981 2.81183 
8.76415 5.76038 0.102458 
15.741 4.36709 1.23127 
12.8358 4.42842 1.41568 
13.1393 7.45666 1.33162 
15.8343 7.18648 1.22759 
14.2232 5.89449 2.7798 
18.7134 4.29652 1.51875 
18.6949 7.23916 1.53802 
17.0952 5.74763 2.6173 
18.5447 7.1093 4.07794 
20.1362 5.68742 2.92265 
17.2698 5.68419 0.0268398 
24.3446 4.34756 1.40547 
21.7015 4.4076 1.36738 
21.6734 7.07831 1.39809 
23.0142 5.55927 3.00015 
24.3724 7.25081 1.5435 
28.6696 5.94042 3.06597 
27.2232 4.39826 1.36332 
27.383 7.27528 1.43548 
25.7171 5.75335 2.87585 
25.8106 5.78469 0.0564186 
1.43131 10.0153 1.45013 
2.952 8.61868 2.90323 
2.74225 11.5944 2.95521 
0.0134781 11.5775 0.0335916 
2.95257 11.5983 0.0273458 
0.0740682 11.6261 2.81717 
2.88418 8.66768 0.118484 
4.18301 10.0571 1.45758 
7.19519 9.97117 1.53018 
5.81268 8.68675 2.86418 
5.68765 11.4758 2.82359 
5.69849 11.4782 0.21188 
5.8626 8.43981 0.083594 
10.276 10.0727 1.41042 
8.56238 8.64909 2.98282 
11.4627 8.84587 2.88572 
8.62185 11.4938 2.79197 
11.4744 11.565 2.75863 
8.76456 11.5452 0.0416164 
8.80694 8.56449 0.0791842 
12.925 10.0306 1.44476 
15.8822 10.173 1.41225 
14.5541 8.721 2.74681 
14.4456 11.3301 2.80662 
14.2967 11.4695 0.202593 
20.009 8.68354 0.127148 
18.5561 10.06 1.47791 
17.2547 8.65431 2.84701 
20.1538 8.73876 2.98251 
17.2197 11.7231 3.00787 
20.1626 11.4571 2.85099 
17.1142 11.5099 0.00346896 
21.6335 9.97043 1.41862 
24.4021 9.94686 1.5247 
22.9727 8.59199 3.00061 
22.7647 11.8349 2.7408 
21.4983 12.2822 0.663622 
25.7808 8.73338 0.0747985 
28.5855 8.70119 2.88986 
27.3977 10.1507 1.44598 
25.8638 8.52165 3.02875 
25.9335 11.5619 2.90255 
1.35853 13.1177 1.38773 
1.48228 15.8728 1.4783 
2.9949 14.3672 2.84872 
4.25511 15.7591 1.58658 
4.25975 12.9118 1.46336 
7.06662 12.9421 1.6325 
7.30272 15.6893 1.45787 
5.80254 14.5635 2.92422 
5.78005 14.3871 0.0707307 
10.068 12.9811 1.43075 
10.2132 15.8157 1.55367 
8.45413 14.2889 2.89381 
11.3713 14.3479 3.00515 
8.62918 14.3814 0.0193549 
12.8464 12.9778 1.44326 
15.8013 13.0794 1.55596 
12.8044 15.8394 1.57503 
15.6005 15.6427 1.38855 
14.162 14.2447 2.97981 
14.2976 14.2846 0.076393 
18.7858 13.0055 1.25882 
18.5571 15.88 1.33118 
17.312 14.3642 2.69815 
19.7873 14.8441 3.2758 
17.1736 14.1592 0.0508956 
21.3575 13.7419 2.21056 
21.6271 15.9495 1.66815 
23.4601 14.3325 3.03377 
24.59 12.9419 1.46191 
22.9317 14.578 0.126136 
24.6909 15.9143 1.57063 
28.4951 14.6267 2.96569 
27.3969 12.9589 1.44272 
27.3748 15.7638 1.22457 
25.9087 14.5101 2.96431 
1.48494 18.7474 1.51113 
2.9431 17.345 2.91942 
2.94348 20.2256 2.77219 
0.0306169 17.1999 2.90422 
0.115741 17.4826 0.157131 
0.185055 20.0585 0.118704 
4.42972 18.5352 1.35093 
7.18774 18.5608 1.28154 
5.51159 17.1295 2.87728 
7.1797 18.5855 4.04391 
5.76171 20.1139 2.79694 
8.57565 20.0833 0.0681706 
10.0574 18.7058 1.58384 
8.67464 17.1734 2.89294 
11.5228 17.2624 2.80738 
8.51094 20.0865 3.00822 
11.3929 20.3098 2.92465 
11.3615 20.0442 0.133021 
8.6316 17.1392 0.0505981 
12.8748 18.7026 1.60302 
15.7948 18.8512 1.42269 
14.2974 17.187 2.74196 
14.2434 20.2041 2.80801 
14.4184 20.2104 0.185898 
14.2184 17.2579 0.00744647 
18.5098 18.7287 1.57544 
16.9491 17.1988 2.68067 
20.0198 17.1924 2.87123 
17.2993 20.3052 2.78418 
19.9343 20.1696 2.79894 
17.0662 17.2359 0.014503 
20.0619 20.0156 0.12045 
19.9437 17.2887 0.174651 
21.4706 18.6272 1.39958 
24.4547 18.6537 1.30143 
23.0414 17.2397 2.91918 
22.7495 20.1494 2.94665 
22.9447 20.0785 0.117413 
28.703 20.2945 2.94709 
27.3402 18.7288 1.52183 
26.1157 17.1519 2.70356 
25.6487 20.0686 2.81293 
0.104293 23.1847 0.0250402 
1.59777 21.5707 1.4422 
2.82059 23.0435 2.87417 
1.46117 24.4989 1.41205 
4.28137 24.4393 1.32607 
4.51539 21.4201 1.431 
7.39057 21.5378 1.57187 
5.75847 22.8957 2.78511 
6.96323 24.3701 1.48215 
8.68139 22.9107 0.192807 
10.1585 21.3698 1.5051 
8.49317 23.1145 2.96904 
11.5398 23.1473 2.93392 
10.1448 24.3233 1.43962 
14.421 23.1628 0.0106027 
12.7852 21.6618 1.3328 
15.7884 21.5956 1.48061 
14.513 22.8775 2.92217 
12.9114 24.2408 1.50437 
15.7981 24.3509 1.35898 
18.5869 21.6055 1.32673 
17.1864 23.0989 2.79383 
19.9727 23.0087 2.75343 
18.813 24.4364 1.38088 
21.4511 21.6539 1.30875 
24.5121 21.5938 1.2237 
21.6381 24.4253 1.46207 
22.935 23.0791 2.75578 
24.2627 24.4576 1.39718 
25.853 23.1615 0.0511938 
28.6174 23.0546 2.99411 
27.4016 21.5942 1.45767 
26.9781 21.583 4.0477 
25.7198 23.1515 2.6078 
27.1673 24.5819 1.48856 
2.83936 28.5865 2.80632 
1.38391 27.4548 1.35924 
2.85172 25.8946 2.62039 
0.131569 25.7419 2.79666 
4.47037 27.4985 1.40734 
7.48856 27.3256 1.54784 
5.81279 26.0065 2.8274 
8.61513 28.6899 3.05878 
10.1729 27.3267 1.55068 
8.70688 25.7214 2.77088 
11.755 25.9447 3.05841 
12.9679 27.2332 1.38396 
15.7742 27.2709 1.11435 
14.3173 25.8879 2.74229 
15.6965 27.2479 4.02782 
18.8268 27.3268 1.25324 
17.2009 26.0302 2.57505 
20.0036 26.0709 2.75911 
22.9653 28.5185 2.69043 
21.6098 27.2317 1.31629 
22.9695 25.9159 3.14416 
24.4756 27.3297 1.48253 
27.1011 27.3123 1.36879 
25.7354 25.7784 2.90591 
28.5674 26.0481 0.013922 
1.29475 1.43296 4.19305 
1.51379 1.46677 7.11462 
2.83244 2.83212 5.67685 
0.0652972 2.95672 5.80342 
2.91406 0.0608941 5.85994 
4.24094 1.49601 4.40687 
7.01116 1.58318 4.44247 
4.36149 1.26581 7.35762 
7.01335 1.31356 7.27698 
5.73805 2.88218 5.90821 
5.59371 0.0182392 5.48748 
10.2881 1.33025 4.43452 
10.157 1.55379 7.32719 
8.35825 2.9947 5.87301 
11.5758 2.93029 5.93814 
8.40242 0.132263 5.85195 
11.7074 0.0101768 5.82582 
12.9006 1.70433 4.32735 
13.073 1.39205 7.1574 
15.9124 1.4448 6.95283 
14.5063 3.02243 5.61913 
18.6974 1.25803 4.17473 
18.7314 1.42956 7.04145 
17.3594 2.98537 5.46594 
20.1897 2.7846 5.56697 
18.7452 4.10039 7.07997 
17.152 0.0296481 5.56913 
20.0079 0.152732 5.64061 
21.5468 1.44348 4.12733 
24.2602 1.30841 4.15092 
21.389 1.41676 7.2845 
24.4924 1.33257 7.05723 
23.0379 2.67774 5.65911 
22.9864 0.0708383 5.76344 
27.2927 1.29272 4.16256 
27.4129 1.36383 6.9463 
26.0248 2.79636 5.62297 
1.41395 4.57351 4.29331 
1.45328 7.24111 4.33462 
1.62583 4.34586 7.29 
1.4679 7.13212 7.30548 
2.94431 5.8083 5.80817 
0.154145 5.90377 5.89319 
4.28743 7.14659 4.38779 
7.19679 4.45302 4.42243 
4.28609 4.23208 4.40731 
7.26071 7.20805 4.28912 
4.35089 4.3464 7.27631 
7.16742 4.38619 7.32892 
4.22786 7.19687 7.02919 
5.58445 5.89492 5.73974 
6.98193 7.23578 7.35259 
10.2275 4.27003 4.43027 
10.1901 7.30528 4.31662 
10.0644 4.25955 7.23732 
8.47534 5.85694 5.71083 
9.85521 7.0338 7.29255 
11.3087 5.84263 5.76957 
15.7942 4.40149 4.113 
13.1042 4.31709 4.21832 
12.8557 7.15064 4.27061 
15.8312 7.23854 4.32038 
13.1766 4.43104 7.00664 
15.9798 4.31658 7.24176 
13.0542 7.16434 7.10264 
14.6092 5.84146 5.71054 
15.9574 7.32195 7.08942 
18.8413 4.28486 4.28783 
17.2718 5.68913 5.58 
18.6969 7.02166 7.32125 
19.9148 5.69824 5.61325 
24.4465 4.20487 4.23971 
21.6231 4.26432 4.31679 
21.5536 7.07337 4.12973 
24.545 7.24313 4.24556 
24.5437 4.24998 7.17595 
21.573 4.24377 7.1908 
21.5768 7.27033 7.16213 
23.0643 5.71784 5.63742 
24.4338 7.20903 7.38313 
27.427 4.46524 4.47745 
27.2703 7.31032 4.4443 
27.3874 4.47405 7.16347 
25.6813 5.78454 5.74468 
27.2402 6.87954 7.26047 
1.43298 9.93853 4.38833 
1.51986 10.0047 7.25243 
2.7816 8.68521 5.76035 
2.73599 11.5237 5.78852 
0.0908478 11.4724 5.81837 
4.22734 10.0873 4.32115 
7.0704 10.0648 4.3362 
4.20553 9.97864 7.04628 
5.88498 8.69912 5.67492 
7.21804 9.97532 7.13673 
5.64158 11.407 5.77442 
10.0307 10.3053 4.24129 
8.56587 8.41432 5.87683 
10.1355 9.77657 7.21329 
11.5996 8.47633 5.67503 
8.59511 11.5377 5.79377 
11.4786 11.4677 5.82227 
12.9686 10.0988 4.34605 
15.8487 10.1524 4.38072 
12.8267 9.95275 7.22415 
14.3582 8.65441 5.49909 
15.8298 10.2516 7.06007 
14.2016 11.4801 5.85251 
18.7209 10.2535 4.18482 
17.3274 8.75501 5.79539 
18.5427 10.3579 7.20562 
19.9799 8.73899 5.75212 
17.3123 11.6212 5.72496 
19.9856 11.6139 5.67815 
21.564 10.0501 4.41733 
24.3398 10.3066 4.22778 
21.5113 10.1473 7.07949 
22.9033 8.60977 5.76461 
22.9057 11.4726 5.77325 
24.3644 9.93105 7.21027 
27.3463 10.2295 4.28373 
28.6798 8.64196 5.98566 
25.7815 8.70513 5.69647 
27.3303 9.98718 7.27368 
25.7427 11.3052 5.84418 
1.39553 13.057 4.24604 
1.69378 15.7814 4.43869 
1.4414 12.9964 7.06069 
1.40591 15.7713 7.19138 
3.04507 14.3553 6.00945 
0.16264 14.5519 5.73736 
4.20193 15.9611 4.47261 
4.22839 12.7924 4.27104 
7.07475 12.9678 4.31792 
7.17538 15.7281 4.23452 
4.36989 15.919 7.27939 
4.32171 12.7988 7.27006 
7.19199 12.8944 7.15016 
5.70949 14.4348 5.78098 
7.23377 16.0542 7.20507 
9.90436 12.8815 4.40381 
10.0331 15.8209 4.30793 
9.89265 12.8733 7.37195 
8.58962 14.2676 5.80688 
9.80523 15.9148 7.13282 
11.2681 14.3748 6.01291 
12.9778 12.8224 4.30308 
15.736 13.1986 4.52152 
12.9034 15.8681 4.28886 
15.6437 15.6797 4.20921 
12.9682 12.7842 7.37846 
15.8307 13.0163 7.33214 
12.8963 15.8487 7.17353 
14.1643 14.3196 5.91947 
15.6488 15.7871 7.24187 
18.5208 13.2607 4.20852 
18.5069 16.1816 4.47674 
18.6546 12.9806 7.27792 
17.0734 14.4042 5.90569 
18.5134 15.7776 7.05379 
20.0387 14.4608 5.841 
21.501 13.0712 4.62386 
21.9877 15.7278 4.39406 
24.2827 15.9452 4.5031 
21.3648 12.9107 7.14004 
21.489 15.7012 7.28161 
22.9665 14.4385 6.04212 
24.4275 15.9142 7.45568 
24.278 12.7562 7.18186 
24.6238 13.0498 4.50684 
27.4567 13.0718 4.35412 
27.2385 15.999 4.50591 
27.264 12.9482 7.03783 
25.8275 14.4479 5.91614 
27.1972 15.922 7.08265 
1.44559 18.6608 4.20731 
1.26592 18.6366 7.09394 
3.01838 17.4194 5.96622 
3.00706 20.3202 5.74115 
4.20449 18.9111 4.32555 
4.28086 18.8956 7.32149 
5.78245 17.4112 5.79245 
7.18372 18.6988 7.33049 
5.81296 20.0737 5.69933 
10.1131 18.7783 4.25069 
8.54888 17.2994 5.59551 
9.94824 18.6764 7.17437 
11.4354 17.184 5.72803 
8.62618 20.0409 5.71758 
11.3526 20.2163 5.80485 
12.887 18.7293 4.30674 
15.5855 18.6666 4.33905 
12.7416 18.6482 7.14683 
14.2061 17.4076 5.84736 
15.5837 18.852 7.39923 
14.3037 20.2826 5.70234 
18.5406 18.6493 4.20895 
16.885 17.2942 5.60982 
18.3386 18.6938 7.2294 
20.1046 17.2986 5.78492 
17.2005 20.0665 5.63779 
20.0221 20.078 5.65177 
21.5231 18.6255 4.26043 
24.2947 18.5518 4.30998 
21.4087 18.7967 7.10896 
22.9579 17.2806 5.98298 
22.8311 20.0722 5.83946 
24.3766 18.8376 7.22131 
27.0176 18.6968 4.30868 
28.6736 19.9038 5.61815 
28.7032 17.4006 5.62909 
25.7374 17.3137 5.81208 
27.1277 18.7763 7.23409 
25.8042 20.1398 5.73469 
1.5159 21.595 4.27695 
1.2463 24.3877 4.50061 
1.35032 21.5393 7.14231 
2.89924 23.0406 5.57071 
1.48715 24.3472 7.14207 
4.63329 21.5558 4.29187 
7.24512 21.425 4.42637 
7.14111 24.3488 4.20471 
4.54305 21.6748 7.15166 
7.26794 21.6621 7.09619 
4.25732 24.395 7.20495 
5.79266 23.2343 5.78197 
7.23293 24.466 7.35231 
9.9877 21.7162 4.29341 
9.94739 24.401 4.34899 
10.0304 21.6452 7.36549 
8.65719 22.9603 5.63601 
9.99661 24.4363 7.25057 
11.3267 22.9072 5.70021 
12.8153 21.6141 4.27254 
15.7002 21.4373 4.15319 
12.7859 24.1846 4.37078 
15.8212 24.3649 4.24506 
12.9219 21.7984 7.03121 
15.7231 21.6234 7.18311 
14.5038 22.9199 5.65875 
15.7414 24.3342 7.14436 
12.7111 24.5624 7.09118 
18.7013 21.7337 4.23572 
18.6569 24.3671 4.28884 
18.5023 21.5426 7.02259 
17.364 22.9997 5.55552 
20.0882 23.0735 5.8012 
18.5984 24.508 7.25826 
21.5122 21.4595 4.34679 
24.2235 21.5416 4.21568 
24.4096 24.3091 4.41887 
21.3304 24.35 4.19097 
21.3276 21.3993 7.11168 
21.5342 24.3749 7.06185 
22.8015 22.9319 5.6754 
24.4038 24.5118 7.21183 
24.1751 21.5895 7.16361 
27.3536 24.5361 4.21877 
28.5723 22.8314 5.69791 
27.2469 21.5449 7.21285 
25.7823 22.9331 5.76747 
27.2101 24.5218 7.16035 
1.42661 27.252 4.32739 
1.43828 27.1844 7.32846 
2.81456 25.886 5.8058 
0.00403314 28.4419 5.78984 
4.13379 24.7411 4.23292 
4.30182 27.4228 4.24196 
7.23655 27.3304 4.37843 
4.2744 27.3474 7.15324 
5.74034 25.9208 5.5979 
7.18485 27.2198 7.19816 
10.1908 27.3442 4.35334 
8.47065 25.8283 5.69558 
9.95524 27.3396 7.28461 
11.4102 25.9592 5.86327 
12.9905 27.2822 4.50931 
14.375 28.7017 5.6852 
12.9897 27.3895 7.12644 
14.3543 25.6892 5.85444 
15.8341 27.1275 6.85815 
18.6372 27.303 4.23552 
17.053 25.8277 5.47987 
18.7191 27.2231 7.28916 
20.0359 25.91 5.69829 
21.3916 27.3147 4.24206 
24.3283 27.3292 4.40395 
21.3887 27.4192 6.98851 
22.9269 25.8241 5.88436 
24.3422 27.1799 7.18664 
27.2639 27.2278 4.26802 
25.9639 28.7066 5.73916 
28.617 25.8724 5.91204 
25.8231 25.8628 5.66545 
27.2343 27.2304 7.24983 
2.97671 2.68225 8.73023 
2.74888 0.0306007 8.73245 
0.0868517 2.90989 8.46862 
0.179885 0.0591171 8.55554 
1.27402 1.53263 10.2799 
2.82185 2.9009 11.4435 
2.78675 0.0254662 11.4527 
0.0428394 2.78911 11.6779 
5.74664 2.77891 8.51611 
4.47596 1.45336 10.1643 
7.28908 1.4701 10.1177 
5.73583 2.91946 11.4034 
7.39112 4.09808 10.0024 
8.78816 2.65745 8.6709 
11.7 2.93985 8.61339 
8.47602 0.028933 8.55523 
10.1678 1.2001 9.85778 
8.65162 2.80938 11.5296 
11.4382 2.78475 11.3791 
14.5828 2.81658 8.48286 
13.0451 1.33388 9.83229 
15.7943 1.38933 10.0242 
14.2469 2.73037 11.4087 
17.1244 2.83743 8.64022 
20.1647 2.84987 8.57089 
17.3752 0.121456 8.49709 
18.7396 1.47798 10.054 
17.2408 2.92115 11.4098 
19.9686 3.01177 11.5081 
23.0861 2.8678 8.33006 
23.0242 0.117481 11.4843 
21.3433 1.55937 10.135 
24.3568 1.53058 10.0424 
22.9705 2.92515 11.4895 
24.5102 4.0973 10.0483 
26.0234 2.7131 8.59082 
27.2985 1.37258 9.99442 
25.8948 2.7679 11.5842 
2.81 5.8097 8.77861 
0.106791 5.65289 8.73394 
1.5335 4.11428 9.96475 
1.33595 7.15979 10.0614 
2.84551 5.7563 11.716 
0.138904 5.67813 11.4673 
5.72316 5.68415 8.64777 
4.42727 4.15065 9.93919 
4.20976 7.09694 10.0551 
7.21155 7.1623 10.1868 
5.77064 5.64162 11.5091 
8.50184 5.80146 8.6839 
11.4817 5.84597 8.63432 
10.2305 4.26823 9.90843 
9.91113 7.095 10.1238 
8.5752 5.7536 11.574 
11.5316 5.665 11.4929 
14.4411 5.74927 8.48791 
15.6845 4.14758 10.1162 
12.8816 4.32416 10.0756 
13.0077 7.03738 9.98336 
15.8584 7.11528 10.0615 
14.2446 5.70004 11.4142 
17.2831 5.68758 8.68151 
20.1364 5.5688 8.63471 
18.5687 4.11601 9.93453 
18.7633 7.16065 10.1031 
17.2578 5.61302 11.459 
20.0694 5.70243 11.5728 
22.8254 5.67333 8.66853 
21.5024 4.28863 10.0848 
21.3474 7.05882 10.0406 
23.1825 5.59159 11.4813 
24.2437 7.17708 9.96887 
25.6685 5.70928 8.67436 
27.3618 4.2369 10.1787 
27.2794 7.13001 9.9411 
25.9274 5.81499 11.4207 
2.95871 8.63926 8.65869 
2.58818 11.385 8.61122 
0.0121427 11.3477 8.64549 
0.10616 8.55597 8.64819 
1.38039 9.91749 10.2058 
2.63803 8.52087 11.4909 
2.82783 11.4398 11.4561 
0.0701144 11.5201 11.4382 
5.47987 8.61894 8.71086 
5.98693 11.4146 8.43455 
4.2228 9.9345 10.1004 
7.18242 10.0338 10.1486 
5.48609 8.45081 11.5477 
5.44065 11.4252 11.5003 
8.47996 8.61824 8.57377 
11.4359 8.47498 8.47998 
8.50832 11.3858 8.65786 
11.478 11.3028 8.72426 
9.92322 9.70922 10.032 
8.59515 8.58557 11.6014 
11.7357 8.58369 11.5375 
8.76633 11.4287 11.5044 
11.5462 11.329 11.6597 
14.3223 8.66648 8.50364 
14.2102 11.501 8.69058 
13.0053 10.1414 10.1037 
15.7021 10.0692 9.97872 
14.3615 8.50613 11.4337 
14.4207 11.5385 11.3866 
17.2934 8.62705 8.57823 
20.1809 8.66508 8.54342 
17.0064 11.3962 8.70504 
20.1678 11.2596 8.6215 
18.6184 10.1308 10.0027 
17.2373 8.62322 11.3461 
20.1433 8.63668 11.4972 
17.1276 11.5067 11.5758 
20.0653 11.419 11.4468 
22.926 8.57445 8.63471 
22.9601 11.6236 8.5156 
21.6989 10.1074 10.007 
22.9994 8.51065 11.3808 
23.0969 11.4547 11.5386 
24.3525 9.99875 10.0027 
25.9684 8.44755 8.60408 
25.9141 11.4944 8.51094 
28.6258 8.5449 11.4809 
27.19 9.90411 9.98286 
25.9063 8.37525 11.4582 
25.8924 11.3452 11.5449 
2.83713 14.2173 8.74897 
1.30019 12.9268 10.0748 
1.32381 15.7038 9.85564 
2.75657 14.4096 11.3585 
0.1078 14.1654 11.5693 
5.70416 14.4441 8.54069 
4.24631 15.7844 10.0353 
4.17152 12.8439 9.99753 
6.97403 13.0178 10.2197 
6.90471 15.7023 10.2035 
5.54741 14.4913 11.5321 
8.39844 14.4243 8.66859 
11.4085 14.3892 8.74635 
10.0051 12.7734 10.0764 
10.217 15.7031 10.0867 
8.68146 14.3676 11.5064 
11.5413 14.4275 11.4709 
14.193 14.3846 8.54111 
12.8017 12.9366 9.97231 
15.7299 13.0588 10.0701 
12.8517 15.8202 10.0436 
15.799 15.9463 10.0988 
14.3576 14.2537 11.5342 
17.1729 14.4815 8.74997 
19.9685 14.3179 8.62936 
18.4716 12.784 10.0055 
18.7362 15.862 9.84025 
17.2581 14.4177 11.4759 
20.0786 14.3267 11.2002 
22.8738 14.3513 8.67786 
21.4656 12.8802 10.1226 
21.5937 15.8225 10.087 
23.0749 14.2497 11.4209 
24.4176 15.793 10.1431 
24.3933 12.8063 10.0134 
28.5894 14.4169 8.53093 
25.9817 14.4165 8.5817 
27.3717 12.9682 9.85041 
27.2881 15.8439 10.2476 
25.7431 14.3401 11.4376 
2.70985 17.2804 8.60935 
2.66395 20.0685 8.53868 
1.31347 18.7305 9.92995 
2.67991 17.2417 11.3963 
2.71254 20.099 11.3141 
5.67855 17.2437 8.6735 
5.91528 20.0469 8.52944 
4.18972 18.6973 10.005 
6.99338 18.683 10.1206 
5.53645 17.3004 11.5761 
5.77524 19.9081 11.7004 
8.40223 17.1876 8.9629 
11.3257 17.2502 8.60655 
8.59158 20.3425 8.71114 
11.5006 20.043 8.69055 
9.96278 18.6079 10.084 
8.56943 17.0504 11.5756 
11.5278 17.1291 11.5814 
8.44735 20.1314 11.5655 
11.4872 19.8976 11.4899 
14.3069 17.3644 8.62595 
14.1765 20.1739 8.8184 
12.8912 18.4525 10.1044 
15.7607 18.6363 10.1259 
14.3363 17.2284 11.6876 
14.1193 20.0194 11.56 
17.1455 17.2149 8.67744 
20.0445 17.2848 8.63333 
17.22 20.3172 8.67044 
20.0703 20.0857 8.84748 
18.6376 18.7185 10.0798 
17.4337 17.3127 11.3905 
20.0036 17.249 11.6736 
17.206 20.1429 11.464 
20.0163 20.3887 11.599 
22.9959 17.3649 8.72887 
22.8328 20.2987 8.61403 
21.606 18.5347 10.2898 
22.9446 17.0231 11.6049 
22.8586 20.0775 11.6112 
24.3059 18.7632 10.1236 
28.5675 19.946 8.49349 
28.6108 17.2165 8.73882 
25.7201 17.2977 8.68806 
25.8105 20.1538 8.62316 
28.4535 20.0487 11.3338 
28.6629 17.1875 11.5256 
27.0221 18.7028 10.2118 
25.8265 17.2501 11.6283 
25.7253 20.1022 11.5395 
2.822 22.8887 8.48165 
1.44188 24.2173 10.0538 
1.3663 21.6198 10.0754 
3.0965 22.8373 11.4208 
6.08483 22.9887 8.66567 
4.3479 24.3749 9.97181 
7.25611 24.5251 10.1617 
4.44086 21.3987 9.90325 
7.2041 21.6188 10.1073 
5.7741 22.8908 11.6301 
8.62112 23.071 8.71252 
11.643 22.898 8.73385 
10.1287 24.4377 10.018 
10.115 21.5941 10.0033 
8.68884 22.9682 11.601 
11.2604 22.8577 11.5256 
14.4263 22.9911 8.63287 
12.8168 21.6055 10.2971 
15.7151 21.4706 10.182 
12.7712 24.5353 9.95582 
15.8468 24.5358 10.046 
14.5046 22.9977 11.326 
17.0679 23.0672 8.68136 
19.869 22.9106 8.48625 
17.1419 23.1118 11.3107 
19.8323 22.8954 11.53 
18.4859 21.5648 9.9001 
18.6029 24.3495 9.84306 
22.8494 22.9847 8.58664 
21.3065 21.5956 9.95073 
24.2699 21.6877 10.3723 
24.3915 24.4289 10.0169 
22.7524 23.0444 11.7269 
21.3399 24.1795 9.92808 
28.6356 22.9978 8.56496 
25.6647 22.9029 8.70428 
25.9907 22.9885 11.5397 
28.6541 22.8961 11.573 
27.4528 24.3093 10.0382 
27.2002 21.4905 10.0477 
2.87218 25.8109 8.59444 
0.0427985 25.7477 8.59544 
0.164379 25.774 11.2139 
0.0152947 28.5711 11.7157 
1.52367 27.4617 10.1064 
2.98143 25.8857 11.4874 
5.67754 28.6768 8.78282 
5.71466 25.7231 8.6158 
4.34242 27.214 9.83707 
7.10278 27.2944 10.2368 
5.70011 25.753 11.6567 
5.57662 28.5991 11.414 
11.6577 28.4476 8.73616 
8.65206 26.0204 8.66026 
11.4707 25.9455 8.69671 
8.61223 28.6827 11.7289 
9.96991 27.3422 10.1289 
8.56227 25.969 11.5887 
11.3279 28.702 11.5817 
11.5246 25.995 11.5506 
14.5995 28.7081 8.39682 
14.4909 25.9323 8.61813 
13.0105 27.4395 10.1943 
15.853 27.4373 10.0137 
14.4579 25.9672 11.4575 
14.3859 28.6949 11.5109 
19.9182 28.6878 8.72615 
17.128 25.913 8.56877 
20.1013 25.746 8.61082 
20.1366 25.7222 11.3873 
18.7069 27.2747 9.83457 
17.4002 25.8317 11.3896 
19.9541 28.6136 11.4376 
17.3862 28.6995 11.3551 
22.9203 28.6824 8.61691 
22.6881 25.8473 8.66097 
22.8802 25.7345 11.2566 
24.5535 27.2231 9.84787 
21.619 27.2937 10.1374 
25.7816 28.6888 8.51028 
25.792 25.8319 8.46743 
25.8457 28.6685 11.337 
26.06 25.5826 11.3251 
27.377 27.2553 9.93478 
1.49153 1.45606 13.1264 
3.07215 2.97842 14.284 
1.66076 1.38759 15.6369 
4.30978 1.5063 12.7874 
7.14985 1.45222 12.8785 
4.22232 1.48503 15.8629 
7.24514 1.36612 15.9011 
5.70555 0.00727453 14.4577 
5.64658 2.84455 14.4185 
9.87759 1.40911 13.1029 
11.3731 2.9616 14.3412 
10.0574 1.49635 15.8296 
8.65291 2.92838 14.5533 
11.3586 0.083184 14.449 
12.8564 1.34957 12.9501 
15.9136 1.32516 12.8603 
14.322 2.76657 14.2565 
13.0154 1.23062 15.719 
15.7758 1.37609 15.6932 
18.6233 1.45114 12.8817 
17.079 3.00924 14.3226 
20.1015 0.0645128 14.2522 
18.6765 1.17722 15.7161 
20.1054 2.81247 14.5257 
21.5129 1.55414 12.9123 
24.5051 1.39119 12.8879 
21.4724 1.47831 15.7611 
24.4431 1.5503 15.7456 
23.0721 2.83294 14.3834 
28.5345 2.773 14.3497 
27.1712 1.30322 12.9647 
25.9216 2.86182 14.3448 
27.1853 1.42565 15.787 
1.49083 4.25351 13.0155 
1.30203 7.23441 12.9628 
1.51324 4.29437 15.8049 
1.55261 7.22791 15.8878 
2.87261 5.75694 14.425 
0.0233372 5.67459 14.4186 
4.45123 4.28366 12.8746 
4.36156 7.0521 12.927 
7.09518 4.17223 13.0637 
7.17878 7.12847 13.1734 
4.23175 4.37957 15.7511 
4.34985 7.05945 15.721 
7.12985 4.3133 15.7842 
7.13051 7.09067 15.6741 
5.7175 5.72125 14.445 
9.93997 4.24803 12.9297 
10.135 7.14691 12.8198 
11.5651 5.6573 14.2113 
10.066 4.41086 15.796 
9.94052 7.25384 15.6966 
8.66112 5.70463 14.3585 
15.8529 4.35351 12.8949 
12.8007 4.18916 12.8151 
12.9177 7.06605 12.9121 
15.8536 7.0611 12.8841 
14.4519 5.62226 14.1494 
12.9899 4.1545 15.8307 
15.8281 4.45999 15.6345 
12.9863 7.14661 15.8496 
15.7286 6.91083 15.7391 
17.3432 5.80528 14.325 
18.5053 4.15244 12.9293 
18.7596 7.30137 12.9061 
20.0409 5.69715 14.1558 
18.7514 4.36185 15.7966 
18.8076 7.19059 15.6542 
21.4789 4.45289 12.8961 
24.4028 4.1125 12.9122 
21.5143 7.19111 13.0559 
24.3604 7.33777 12.7574 
23.1807 5.76119 14.2397 
21.5721 4.33473 15.7835 
24.3378 4.30302 15.8172 
21.595 7.09589 15.7383 
24.3293 7.20114 15.8202 
27.1844 4.51641 12.9576 
27.2569 7.25457 12.9856 
25.8226 5.75859 14.3182 
27.1767 4.27724 15.7038 
27.2593 7.15412 15.8064 
1.37259 10.2045 12.9643 
2.92141 11.4392 14.3354 
1.47112 9.88609 16.0673 
2.90425 8.66949 14.4452 
0.182895 8.66064 14.6088 
4.15399 9.77561 12.9067 
6.99589 9.9943 12.7887 
5.44758 11.3627 14.2927 
4.24045 10.0832 15.8396 
7.06038 10.151 15.5781 
5.73077 8.46974 14.3704 
10.0268 9.9335 13.0337 
11.5035 8.69395 14.3426 
8.78282 11.4768 14.0273 
8.54739 8.55775 14.3776 
10.0447 9.98302 15.7515 
11.4284 11.2122 14.5826 
14.2871 8.48283 14.3145 
12.9001 10.0235 13.1441 
15.7106 10.031 12.9042 
12.8698 9.94552 15.8353 
15.6792 9.81994 15.736 
14.5137 11.3658 14.382 
20.2385 8.65765 14.2302 
18.5285 9.98917 12.9161 
17.2665 11.3927 14.2551 
20.0998 11.5429 14.3535 
18.5988 10.153 15.6824 
17.3284 8.56966 14.3888 
21.5566 10.1091 12.8463 
24.3124 10.1391 12.8619 
22.9365 8.68174 14.3293 
21.6235 10.1376 15.5987 
24.2881 10.1364 15.6137 
23.0699 11.5054 14.3896 
27.2718 10.0032 13.0154 
25.7525 8.52113 14.2452 
25.9413 11.5146 14.2557 
27.1446 9.97595 15.8051 
28.6576 11.3909 14.5448 
1.48921 12.9923 12.9227 
1.33256 15.8018 12.9634 
4.06637 15.6423 12.8978 
0.018796 14.2816 14.4622 
1.57692 12.6633 15.739 
1.53213 15.6924 15.7444 
2.92752 14.1824 14.4374 
4.21953 13.0304 12.8836 
7.10038 12.8021 12.9408 
7.29745 15.6794 13.0484 
5.79796 14.2868 14.2691 
4.32006 15.7356 15.8783 
4.46872 12.9233 15.772 
7.22395 12.7268 15.7252 
7.04973 15.7626 15.9424 
10.1144 12.9859 12.819 
10.1188 15.668 13.0721 
11.3871 14.344 14.3259 
8.6577 14.3555 14.5541 
10.0744 12.781 15.7801 
10.0688 15.7802 15.9643 
12.9293 12.7454 13.2879 
15.7368 12.8911 12.9161 
13.0263 15.6297 12.9476 
15.8939 15.6682 13.0831 
12.9094 12.9678 15.6506 
15.971 12.7279 15.9289 
12.9163 15.7917 15.7417 
15.9197 15.7045 15.6868 
14.3379 14.3479 14.4564 
18.7994 12.7664 12.8428 
18.728 15.63 12.8688 
18.5369 12.8203 15.8547 
18.4919 15.8011 15.7866 
20.1694 14.3044 14.3975 
17.5042 14.2621 14.3918 
21.5209 12.8368 12.8019 
21.524 15.73 12.9897 
24.4113 12.7309 12.9055 
24.4714 15.7112 12.8838 
23.0246 14.138 14.3587 
21.5249 12.9382 15.9159 
24.2779 12.993 15.7646 
21.4987 15.8177 16.1436 
24.32 15.678 15.6692 
27.4123 12.9034 12.8137 
27.3184 15.8445 12.922 
25.8614 14.2686 14.2945 
27.2598 12.9613 15.7025 
27.1738 15.7372 15.7308 
1.302 18.4352 12.9141 
4.04627 18.6631 13.0754 
2.82119 20.1564 14.3143 
2.67727 17.2571 14.2722 
1.60872 18.8862 15.7361 
7.14048 18.6775 12.9953 
4.32283 18.6837 15.7338 
7.05507 18.8377 15.7838 
5.64082 17.1104 14.3888 
5.3938 20.2814 14.4071 
9.93257 18.6018 12.9068 
11.4425 17.2453 14.5117 
10.0578 18.7076 15.835 
8.68377 17.3158 14.5672 
8.67967 20.0918 14.5703 
11.4351 20.0801 14.5484 
14.313 20.2581 14.2788 
14.3405 17.2398 14.3193 
12.6766 18.5183 13.1406 
15.8424 18.6494 12.9524 
12.9723 18.6662 15.8149 
15.8542 18.723 15.679 
17.2685 17.2336 14.3491 
18.6404 18.6898 13.07 
20.1374 20.074 14.2633 
18.6464 18.685 15.5792 
20.103 17.2326 14.4311 
17.0728 20.1648 14.3662 
21.4809 18.7756 12.8176 
24.4063 18.6464 12.9637 
23.0139 20.077 14.3319 
22.9007 17.1585 14.3655 
21.5872 18.6612 15.7944 
24.4086 18.7138 15.7623 
27.36 18.6279 13.0124 
28.6737 20.1494 14.1581 
25.8016 17.2581 14.4811 
27.2073 18.6618 15.9466 
25.9274 20.0538 14.4671 
28.6311 17.1662 14.5094 
2.93523 22.6967 14.1832 
1.23345 21.4976 12.8007 
1.68058 24.3433 12.9519 
0.0551558 22.8944 14.2542 
1.32097 21.5325 15.7671 
1.48745 24.4374 15.9927 
4.29786 21.4704 12.9006 
7.24079 21.3654 13.0763 
4.33834 24.318 12.8454 
7.29291 24.2751 12.8739 
4.18425 24.2384 15.9385 
4.19198 21.6476 15.8926 
6.85456 21.5708 15.8286 
7.28462 24.4779 15.8929 
5.68028 22.9365 14.3795 
10.1568 24.5314 12.9034 
10.1559 21.3626 12.9252 
11.3222 22.9917 14.305 
9.98448 21.5748 15.7969 
8.63859 23.0323 14.3737 
13.016 24.4565 12.8771 
15.7719 24.4959 12.9694 
12.7267 21.4628 12.8563 
15.7477 21.6589 12.7918 
12.9387 21.6104 15.8513 
15.8167 21.4511 15.8641 
12.9061 24.5284 15.7234 
15.734 24.4174 15.819 
14.386 22.868 14.3666 
18.4836 24.3767 12.9344 
18.4626 21.4389 12.9821 
18.7561 21.4021 15.7285 
18.6035 24.4933 15.5805 
17.1237 23.0554 14.3829 
19.9634 22.8945 14.3818 
22.8618 23.0943 14.2318 
21.2982 24.3009 12.8487 
24.4161 24.4907 12.6306 
21.5238 21.5569 13.0651 
24.4009 21.8097 13.0958 
21.5751 21.4771 15.6378 
21.5418 24.3659 15.756 
24.3635 24.3313 15.727 
24.3015 21.672 15.825 
25.8611 22.9619 14.3173 
27.373 24.3052 12.9024 
27.2695 21.5461 12.9183 
27.2157 21.6065 15.7717 
27.1784 24.5951 15.8057 
3.06234 28.5637 14.1981 
1.41485 27.2606 12.8959 
0.0601526 25.6415 14.2498 
1.4667 27.2845 15.7481 
2.98055 25.671 14.3711 
4.32283 27.0866 13.0144 
7.14311 27.1996 13.019 
5.74127 25.7274 14.3493 
4.31729 27.2373 15.9774 
7.27425 27.1968 15.8614 
10.1162 27.201 12.9612 
8.55254 25.9639 14.3098 
8.60882 28.6253 14.3705 
11.626 25.8358 14.4099 
9.92283 24.6487 15.7247 
10.1791 27.2065 15.815 
14.4322 28.5767 14.2449 
12.8449 27.3582 12.9315 
15.8855 27.1748 12.7758 
14.3598 25.9543 14.2487 
12.9145 27.2919 15.7654 
15.9016 27.2379 15.7197 
18.6782 27.323 12.8786 
17.1427 28.4624 14.3415 
17.3358 25.7835 14.2901 
20.0689 25.8556 14.2027 
18.7257 27.388 15.6983 
21.5721 27.2313 12.6591 
24.4741 27.2236 12.7577 
23.057 28.6059 14.135 
22.8598 25.695 14.0302 
21.5915 27.058 15.6338 
24.3866 27.2891 15.6055 
27.2827 27.1892 12.8709 
25.8425 28.5736 14.111 
25.9964 25.8517 14.2496 
28.7089 28.6103 14.3925 
27.258 27.3118 15.6979 
1.49786 1.35693 18.6618 
2.86874 2.85445 17.256 
0.0806803 2.86047 17.1227 
0.0770939 0.0933354 17.1864 
2.85573 2.82511 20.0831 
0.00428677 2.53634 20.284 
2.87255 0.0324464 20.2278 
4.36245 1.50712 18.8155 
7.28986 1.58369 18.7057 
5.69531 2.84323 17.1622 
5.91301 0.0691295 17.2281 
5.92582 3.06258 20.0445 
6.00552 0.0842253 19.9928 
9.97453 1.37535 18.7199 
8.65842 2.81002 17.1551 
11.4632 2.92201 17.2396 
8.56442 2.89781 20.1479 
11.3722 2.757 20.0616 
12.8131 1.28206 18.7179 
15.7101 1.35142 18.7444 
14.341 2.74862 17.1557 
14.349 0.0288417 17.2794 
14.3558 2.75105 20.0768 
18.6868 1.41885 18.6657 
17.0944 2.98273 17.1726 
20.0598 2.79341 17.2909 
17.2355 0.0419595 17.3491 
17.2506 2.74149 20.1177 
20.166 2.8856 20.1046 
17.2599 0.104673 20.165 
20.1424 0.15174 20.1121 
21.484 1.4121 18.6011 
22.8909 2.88848 17.1867 
24.4239 1.50326 18.4913 
22.9124 2.84465 20.0224 
27.1386 1.48202 18.6585 
25.8693 2.99921 17.1294 
25.8231 2.76912 20.0733 
1.64182 4.29906 18.7806 
1.64594 7.07951 18.7412 
2.96925 5.7361 17.2867 
3.01361 5.91708 20.128 
4.47286 4.40322 18.5319 
7.27068 4.41372 18.724 
4.45204 7.21666 18.7334 
5.71731 5.89486 17.241 
7.24954 7.13762 18.5128 
5.89208 5.72577 20.2977 
10.0389 4.40811 18.6022 
8.66576 5.78442 17.1371 
10.0961 7.12352 18.7444 
11.2735 5.82051 17.2366 
8.43895 5.77406 20.0043 
11.2348 5.7107 20.2069 
12.8737 4.24708 18.7251 
15.6427 4.35449 18.5116 