ITEM: TIMESTEP
37000
ITEM: NUMBER OF ATOMS
2001
ITEM: BOX BOUNDS pp pp pp
0.0000000000000000e+00 2.8712000000000000e+01
0.0000000000000000e+00 2.8712000000000000e+01
0.0000000000000000e+00 2.8712000000000000e+01
ITEM: ATOMS x y z 
1.33831 1.3932 1.31967 
2.8183 2.75485 2.91238 
2.76934 0.0706843 2.97833 
0.0307295 2.83664 0.0582518 
4.46421 1.66653 1.40993 
7.23323 1.37118 1.40782 
5.83636 2.94269 2.8702 
10.0664 1.60717 1.2069 
8.58758 2.67133 2.96734 
11.3931 2.69537 2.7806 
12.9072 1.47512 1.40242 
15.7647 1.32446 1.43059 
14.1748 2.86104 2.9464 
14.3464 0.0311144 2.94938 
14.5436 2.70245 0.0653755 
18.6245 1.60889 1.33707 
17.1841 2.94342 2.7055 
20.297 2.91887 2.61041 
17.2592 0.111653 2.82199 
19.9525 0.225216 2.73102 
21.8185 1.30919 1.43517 
24.4568 1.50091 1.57947 
23.0932 2.99987 2.737 
23.0664 0.0615309 0.00669146 
23.1604 2.86288 0.119197 
28.6756 2.79315 2.78283 
27.1572 1.34488 1.47304 
25.8386 2.97909 3.00142 
25.7499 0.103873 0.105761 
1.55874 4.34137 1.42828 
1.45171 7.4499 1.36365 
3.00034 5.61954 2.809 
2.73957 5.91373 0.0818426 
0.144496 5.81842 2.80755 
4.20893 4.18377 1.36598 
7.26575 4.36873 1.50336 
4.39851 7.08083 1.42739 
7.35515 7.30024 1.52949 
5.82326 5.81753 2.84151 
5.95774 5.75974 0.0581251 
10.0865 4.25809 1.32592 
10.0223 7.02604 1.51683 
8.47057 5.83558 2.94284 
11.4665 5.59531 2.9257 
15.8254 4.20316 1.44689 
12.8997 4.32612 1.55366 
13.1121 7.16703 1.37329 
15.6046 6.99287 1.45579 
14.4323 5.61092 2.98102 
14.3997 5.59122 0.0390931 
18.8072 4.21814 1.32778 
18.6806 7.15481 1.39465 
17.2917 5.61473 2.78891 
20.1742 5.71476 2.87925 
24.5467 4.5333 1.43889 
21.6151 4.28013 1.27435 
21.492 7.20308 1.49832 
22.9285 5.84101 2.75 
24.3434 7.39917 1.42704 
27.3263 4.28138 1.48027 
27.3192 7.13628 1.3621 
25.751 5.74429 2.94133 
1.4059 10.1064 1.51478 
2.78303 8.66408 2.93256 
2.87907 11.5868 3.00713 
2.76662 11.4165 0.0596914 
2.81451 8.69435 0.14437 
4.16646 9.97433 1.50976 
7.2434 10.0966 1.39048 
5.69721 8.77977 2.84025 
5.57168 11.5747 2.9996 
5.64807 11.5404 0.202255 
10.2149 10.0525 1.38099 
8.70567 8.70499 2.84028 
11.6111 8.53893 2.77036 
8.5589 11.5604 2.95802 
11.5026 11.5235 3.03147 
8.83141 8.68813 0.0222873 
11.42 11.5708 0.0493614 
13.0459 10.2641 1.58172 
15.92 10.0705 1.46212 
14.5128 8.68477 2.81679 
14.5208 11.6108 2.93003 
14.4709 11.6278 0.166905 
14.4665 8.72203 0.0151296 
18.7918 10.0421 1.43916 
17.3103 8.55132 2.85769 
19.9653 8.55349 2.91507 
17.4575 11.5008 2.85866 
20.2018 11.544 2.82862 
17.2769 8.49201 0.0952354 
21.6735 9.91119 1.50316 
24.4997 10.0659 1.41829 
22.9205 8.43275 3.02925 
23.0718 11.4483 2.9279 
21.4702 12.0515 0.620025 
28.587 11.8209 2.96933 
28.606 8.63158 3.0137 
27.4399 10.1889 1.53654 
25.6219 8.55801 2.9237 
25.8551 11.5918 2.88853 
1.60071 13.032 1.85728 
1.26648 15.8932 1.52889 
2.8074 14.5307 2.95412 
4.27327 15.7365 1.39698 
4.17258 12.8523 1.48355 
7.30817 12.9334 1.48086 
7.2934 15.5873 1.32138 
5.69127 14.3372 2.77164 
10.2167 12.9309 1.59444 
10.0102 15.7303 1.57623 
8.63275 14.3689 3.06519 
11.6402 14.3757 2.80357 
11.6778 14.1748 0.0937389 
12.9401 12.8658 1.59941 
15.9869 12.876 1.51363 
12.8726 15.8047 1.47529 
15.7034 15.7634 1.25645 
14.461 14.459 2.86415 
18.8263 12.9089 1.36122 
18.7099 15.8277 1.12078 
17.3777 14.5648 2.67608 
19.8812 14.6056 2.83402 
20.1163 14.1915 0.0490614 
21.5805 13.5473 1.88138 
21.6212 15.9031 1.46444 
23.2206 14.4673 3.09066 
24.4057 12.9809 1.53252 
23.1024 14.287 0.029985 
24.368 15.8279 1.5543 
28.622 14.3941 2.77868 
27.3155 12.9774 1.44096 
27.2779 15.9296 1.39709 
25.8541 14.4137 2.97709 
25.6829 14.3679 0.0830926 
1.33993 18.667 1.4842 
3.00469 17.2916 2.95238 
2.73178 20.1755 2.8113 
0.027778 17.1362 2.94148 
2.85564 17.2032 0.170247 
2.8062 20.0303 0.167841 
4.18841 18.7168 1.5425 
7.15156 18.5526 1.53387 
5.77007 17.1468 2.8125 
5.79291 19.9619 2.84306 
5.58914 17.1974 0.239703 
8.63749 20.1264 0.205654 
10.1532 18.754 1.64733 
8.56243 17.2959 2.99166 
11.5407 17.1751 3.03541 
8.39921 20.1711 2.96773 
11.365 20.0464 2.99912 
11.3591 20.2306 0.235398 
8.62293 17.1211 0.0454382 
11.4706 17.2363 0.0450295 
12.8723 18.7408 1.40426 
15.614 18.9296 1.40768 
14.3211 17.287 2.78757 
14.1585 20.105 2.91598 
14.2305 20.2316 0.0151811 
14.4369 17.2483 0.0877128 
18.6391 18.7642 1.31652 
17.2154 17.4106 2.79603 
20.1162 17.3224 2.69364 
17.106 20.0782 2.68583 
20.2887 20.1172 2.88477 
21.7673 18.7459 1.36324 
24.4801 18.7386 1.36295 
22.9501 17.3524 3.03114 
22.9212 20.1632 2.77048 
23.1004 17.0781 0.101316 
28.7087 19.9776 3.00145 
27.3341 18.5473 1.31126 
25.6852 17.1977 2.91613 
25.7944 20.0685 2.69774 
25.7671 20.1366 0.0786073 
0.0296541 23.1087 0.0398194 
1.4693 21.5269 1.37785 
2.97398 23.0948 2.87479 
1.48772 24.4806 1.52721 
2.94482 22.9642 0.103927 
4.58528 24.4207 1.42238 
4.31923 21.6183 1.40975 
7.06483 21.5646 1.4421 
5.60959 22.8067 2.9524 
7.27379 24.3995 1.55494 
8.51801 22.9966 0.01462 
9.83823 21.6268 1.54224 
8.71156 23.0303 3.04029 
11.4463 23.1273 2.69292 
11.3936 22.9651 0.0187777 
14.2292 22.9661 0.126285 
12.999 21.5038 1.43075 
15.7133 21.7914 1.50719 
14.1942 23.0758 2.90816 
12.8368 24.5634 1.34073 
15.8369 24.5627 1.37578 
18.6321 21.3297 1.46105 
18.517 21.3948 4.06675 
17.2123 22.9375 2.95759 
19.9777 22.918 2.92554 
18.7137 24.4792 1.50065 
17.2613 23.056 0.0973496 
21.5829 21.4906 1.42557 
24.3411 21.5526 1.36086 
21.4879 24.5712 1.49812 
22.9349 22.9567 2.82334 
24.2554 24.5386 1.53612 
25.8181 23.1257 0.149395 
28.614 23.0045 2.90393 
27.4213 21.3814 1.49172 
27.1428 21.472 4.09231 
25.7344 22.9542 2.77345 
27.1269 24.3663 1.5097 
0.0105315 28.6297 2.86586 
1.51319 27.425 1.49228 
3.02446 25.76 2.99179 
0.116712 25.8915 2.88479 
2.86767 25.8701 0.0913354 
5.84027 28.6779 2.87302 
4.29269 27.3383 1.47356 
7.28033 27.2418 1.23669 
5.81644 25.97 2.75503 
11.491 28.6147 2.70719 
9.97558 24.6275 1.49195 
8.71192 28.696 2.88778 
9.9927 27.3028 1.45878 
8.50317 25.9246 3.07542 
11.471 26.001 2.63461 
8.68287 25.8973 0.0929354 
13.1108 27.4759 1.41897 
15.8403 27.6016 1.39412 
14.4055 25.8618 2.80058 
14.3617 25.9554 0.247896 
18.8069 27.6001 1.35088 
17.3569 25.9556 2.74646 
20.2317 25.8733 2.86798 
23.0686 28.7066 3.05742 
21.6486 27.4618 1.38142 
22.8586 25.8342 3.00044 
24.5715 27.2857 1.54555 
22.9698 25.9703 0.152402 
25.7887 28.6242 3.10884 
27.3113 27.3235 1.3297 
25.8795 25.8776 2.97652 
1.47503 1.48458 4.42699 
1.38806 1.42371 7.16054 
2.90983 2.83927 5.70536 
4.33249 1.5387 4.23718 
7.34216 1.42607 4.39471 
4.3903 1.34948 7.16856 
7.1645 1.38495 7.06712 
5.86137 2.87803 5.79078 
5.69818 0.139357 5.62545 
4.39418 4.08544 7.14029 
10.1518 1.42357 4.15854 
10.0315 1.31676 7.06652 
8.54096 2.89383 5.69571 
11.3215 2.80558 5.77496 
8.64304 0.0871336 5.63252 
12.7901 1.36922 4.18989 
15.6965 1.55831 4.38615 
12.9127 1.36004 7.13613 
15.7018 1.44256 7.25786 
14.3565 2.75743 5.85507 
18.7529 1.48354 4.34727 
18.6084 1.24068 7.24511 
17.2686 2.85409 5.75515 
20.2649 2.92056 5.92841 
20.1792 0.17935 5.68178 
21.6947 1.56594 4.25554 
24.3871 1.60571 4.57281 
21.4988 1.54234 7.29363 
24.5009 1.25697 7.26374 
22.9868 2.92252 5.94942 
22.9186 0.191847 5.78055 
24.4378 4.01593 7.27713 
27.3424 1.30538 4.1724 
28.591 2.7807 5.66892 
27.1903 1.37994 7.02961 
25.7773 3.08887 5.68131 
28.6476 0.0165815 5.62301 
25.7767 0.102471 5.71835 
1.54199 4.40035 4.30513 
1.39124 7.24077 4.40696 
1.50519 4.16621 7.11836 
1.21726 7.16332 7.12487 
2.76841 5.76214 5.86592 
4.24669 7.26849 4.20027 
7.14449 4.37126 4.25286 
4.3182 4.37889 4.33898 
7.02266 7.41117 4.18847 
7.20984 4.32539 7.18398 
4.26046 7.27926 7.24438 
5.71822 5.86988 5.77663 
7.32939 7.12674 7.26806 
9.9843 4.24425 4.31458 
10.1279 7.19981 4.26148 
9.81834 4.39435 7.12844 
8.56756 5.81841 5.79294 
10.2708 7.03933 7.1815 
11.5084 5.72809 5.70669 
15.7389 4.29393 4.50027 
12.9043 4.21532 4.43465 
12.868 6.99043 4.18169 
15.6634 7.16365 4.35301 
12.8874 4.12527 7.1079 
15.8405 4.24995 7.32632 
12.944 7.16783 7.18269 
14.287 5.79642 5.71993 
15.644 7.17829 7.08938 
18.6183 4.22908 4.25376 
18.5236 7.05728 4.25125 
18.7032 4.19107 7.27109 
17.223 5.81652 5.96839 
18.6017 7.35898 7.23309 
20.1624 5.81319 5.70586 
24.2315 4.36195 4.41227 
21.3776 4.47927 4.39229 
21.4604 7.02478 4.37584 
24.2975 7.00142 4.45917 
21.5662 4.32031 7.36707 
21.3829 7.11151 7.46496 
22.8341 5.81795 6.00381 
24.4799 7.28364 7.25811 
27.3483 4.27748 4.14361 
27.0035 7.17167 4.35963 
28.6452 5.74411 5.59139 
27.4152 4.34058 7.09574 
25.8134 5.77833 5.92362 
27.2882 7.12512 7.09573 
1.44093 10.1244 4.35092 
1.46336 10.1166 7.23762 
2.67631 8.72575 5.80567 
2.72793 11.4563 5.98349 
0.051477 11.6927 5.9071 
4.2513 10.0477 4.47234 
6.87009 10.1617 4.29439 
4.29844 10.041 7.26926 
5.72915 8.59651 5.82335 
7.28534 9.93563 7.24188 
5.92558 11.4244 5.80976 
10.0271 10.1321 4.3711 
8.57431 8.66694 5.8145 
10.1292 10.0431 7.15707 
11.5279 8.42658 5.74879 
8.53329 11.5401 5.8078 
11.5353 11.4877 5.80342 
13.0096 10.0224 4.31394 
16.0604 10.2786 4.53532 
12.9337 9.90734 7.1419 
14.1569 8.51402 5.67609 
15.81 10.0578 7.18575 
14.2233 11.4873 5.64086 
18.8886 9.89305 4.43432 
17.1226 8.59752 5.60587 
18.6103 10.0652 7.08743 
20.153 8.59412 5.80368 
17.2636 11.6388 5.76761 
20.0605 11.5765 5.81989 
21.4406 9.97623 4.27281 
24.3513 10.1002 4.24071 
21.4814 10.0647 7.11275 
22.8218 8.57726 5.77082 
22.8988 11.5829 5.72441 
24.3683 9.9863 7.06135 
27.3448 10.1559 4.40952 
28.5621 8.7634 5.81593 
25.8657 8.69609 5.67257 
27.0653 10.2592 7.25535 
25.7794 11.4813 5.73573 
1.39328 13.0785 4.49743 
1.4529 15.909 4.5068 
1.25296 12.9489 7.26563 
1.46639 15.8118 7.37406 
2.82965 14.334 5.92149 
0.0380135 14.5864 5.8101 
4.30417 15.8061 4.5211 
4.29773 13.117 4.4605 
6.98938 12.9998 4.36234 
7.10725 15.7209 4.32559 
4.50643 15.8567 7.21176 
4.33459 12.9765 7.04383 
7.29207 12.873 7.23799 
5.81918 14.3275 5.7976 
7.17479 15.853 7.11219 
10.1152 12.845 4.4248 
10.0039 15.6936 4.29433 
10.1846 12.8458 7.20868 
8.58198 14.3917 5.7149 
9.9945 15.9205 7.06206 
11.4016 14.416 5.68223 
12.8699 12.8791 4.46081 
15.9617 12.9245 4.15879 
13.0165 15.8877 4.23382 
15.8486 15.9576 4.20935 
12.901 13.1767 7.17247 
15.8323 12.8592 7.35643 
12.8781 15.9168 7.20342 
14.6439 14.4099 5.62884 
15.7977 15.9288 7.17523 
18.6587 13.017 4.32874 
18.4608 16.0215 4.29627 
18.4657 12.8832 7.12928 
17.1707 14.3967 5.75585 
18.6042 15.7347 7.18896 
19.9178 14.3617 5.86917 
21.5996 12.9091 4.28037 
21.4573 15.8494 4.29846 
24.4279 15.8626 4.43732 
24.4741 12.8144 4.48331 
21.5922 13.1126 7.17852 
21.5368 15.8494 7.23692 
22.8567 14.5226 5.6356 
24.3268 15.9557 7.19104 
24.4199 13.0163 7.1638 
27.2472 13.1503 4.39138 
27.17 15.8176 4.35187 
27.0907 12.9061 7.18715 
25.6971 14.406 5.9011 
27.1395 15.9367 7.1737 
1.43339 18.6937 4.46878 
1.55764 18.8224 7.06708 
3.00039 17.3365 5.75454 
3.00381 20.2058 5.82136 
0.00508128 20.0962 5.84345 
4.54813 18.5334 4.26067 
7.12182 18.655 4.19556 
4.29614 18.6678 7.21094 
5.7739 17.359 5.75548 
7.28839 18.5389 7.26872 
5.87656 20.1252 5.83658 
10.0539 18.7426 4.40038 
8.52828 17.336 5.68422 
10.0698 18.7258 7.11701 
11.5739 17.2982 5.67198 
8.53828 20.0402 5.9484 
11.5749 20.1295 5.49741 
12.8959 18.5179 4.28761 
15.7706 18.7032 4.25866 
12.734 18.8267 7.15097 
14.1909 17.3157 5.67449 
15.8952 18.6143 7.06132 
14.4556 20.0416 5.81907 
18.6217 18.6709 4.13299 
17.1512 17.3995 5.59248 
18.7035 18.4575 7.20365 
20.0509 17.185 5.70282 
17.2963 20.0639 5.44177 
20.0093 20.041 5.62232 
21.5917 18.7708 4.22155 
24.4398 18.8133 4.12809 
21.3318 18.8576 7.13847 
22.7303 17.3143 5.79942 
23.0757 20.2576 5.79549 
24.3327 18.868 7.35195 
27.3395 18.607 4.30424 
28.6392 17.3061 5.70577 
25.7188 17.3553 5.79942 
27.2814 18.6996 7.27412 
26.1157 20.1722 5.76512 
1.4624 21.6129 4.29523 
1.32296 24.3126 4.43552 
1.48906 21.7396 7.15816 
2.94923 22.9932 5.72672 
1.53331 24.5565 7.14954 
0.0764569 23.0208 5.78101 
4.26399 21.262 4.34102 
7.33294 21.58 4.31537 
7.18875 24.4346 4.22862 
4.32781 24.3723 4.35144 
4.38027 21.61 7.32934 
7.19348 21.633 7.26323 
4.3282 24.5036 7.06463 
5.7309 22.8932 5.58957 
7.13508 24.2577 7.0774 
9.9491 21.6029 4.26064 
10.0795 24.4338 4.23441 
10.0489 21.4716 7.20014 
8.90417 22.9262 5.73499 
9.99217 24.4145 7.23411 
11.3023 22.9686 5.59406 
12.9183 21.6121 4.33907 
15.793 21.1821 4.28537 
12.8768 24.4357 4.37463 
15.8505 24.5917 4.32208 
12.8373 21.5976 7.00196 
15.7577 21.4995 7.18444 
14.4671 22.9126 5.64552 
15.6661 24.2589 7.07906 
12.7296 24.284 7.22285 
18.5891 24.4402 4.10481 
18.7632 21.5695 7.09366 
17.0727 22.8983 5.62743 
20.2386 23.0876 5.69723 
18.654 24.3073 7.1494 
21.676 21.5525 4.3474 
24.4565 21.5417 4.23616 
24.3201 24.4417 4.31532 
21.4855 24.3868 4.19294 
21.5881 21.5871 6.94413 
21.3077 24.4444 7.1968 
22.9719 22.9261 5.76477 
24.5084 24.2732 7.21094 
24.4158 21.6571 7.13056 
27.1782 24.4702 4.33582 
27.4821 21.6445 7.24146 
25.8481 22.8057 5.77252 
27.3077 24.4019 7.18255 
1.70262 27.2715 4.3451 
2.84593 28.7014 5.78711 
1.3867 27.362 7.21197 
2.96807 25.8468 5.60707 
0.0146553 25.8157 5.82501 
4.47296 27.3668 4.11384 
7.09696 27.3257 4.33614 
4.27952 27.4903 7.25744 
5.59761 26.0303 5.75792 
7.15998 27.4453 7.03675 
9.95348 27.1162 4.47839 
11.5897 28.6965 5.64741 
8.62982 25.8301 5.85304 
10.0659 27.2763 7.09176 
11.5128 25.8162 5.96119 
12.9631 27.2238 4.22747 
15.7932 27.3121 4.17048 
14.4764 28.7111 5.76384 
12.959 27.2071 7.09717 
14.3628 25.8153 5.68842 
15.7391 27.2121 7.06294 
18.7977 27.3368 4.26037 
17.126 28.6966 5.63065 
17.2809 25.7636 5.72544 
18.8224 27.4049 6.93599 
20.0929 25.8799 5.56773 
21.3843 27.4199 4.30936 
24.2686 27.3049 4.52219 
21.4939 27.4717 7.12864 
22.7544 25.8518 5.66849 
24.3202 27.2809 7.05431 
27.3232 27.322 4.26144 
25.8 25.7908 5.79493 
27.2463 27.2455 7.11165 
2.77989 2.94763 8.52766 
2.88463 0.275438 8.68003 
0.0477029 0.0782922 8.66898 
1.42597 1.50027 10.164 
2.96424 2.86475 11.4027 
2.84432 0.0643344 11.5561 
0.00763968 2.9826 11.4405 
0.0109109 0.147435 11.4313 
5.81246 2.87553 8.59574 
5.76748 0.0531191 8.57143 
4.29231 1.61489 9.97246 
7.30936 1.38447 9.95262 
5.70748 2.84458 11.5622 
5.63324 0.17366 11.3492 
8.72508 2.76432 8.67032 
11.3475 2.79232 8.52919 
10.1671 1.41364 10.0165 
8.63743 2.76308 11.6883 
11.5601 2.82545 11.4838 
14.366 2.73879 8.73191 
14.279 0.00404 8.57029 
12.8544 1.11582 10.0768 
15.7806 1.20734 9.96852 
14.3193 2.59359 11.3739 
17.1963 2.84007 8.7429 
20.0323 2.8722 8.69142 
20.0441 0.0599303 8.59765 
18.5547 1.46781 10.1419 
16.9512 2.77778 11.5065 
20.0444 2.68612 11.3464 
23.0993 2.5658 8.64025 
21.4804 1.1937 10.179 
24.5826 1.65568 10.1904 
22.9582 2.81184 11.5173 
21.5027 4.02556 10.1021 
28.5643 2.81972 8.39137 
25.9787 2.78477 8.41486 
25.7552 0.101298 11.6249 
27.2572 1.73633 9.98253 
25.8658 3.07038 11.3412 
2.81948 5.70384 8.48064 
1.48735 4.32662 10.0007 
1.35019 7.16178 9.938 
2.72408 5.89904 11.5202 
5.73691 5.70873 8.65827 
7.15637 4.2135 10.0796 
4.18598 4.37183 10.1897 
4.1521 7.17073 10.0079 
7.22692 7.17637 10.1448 
5.68414 5.70009 11.4009 
8.74899 5.7262 8.6244 
11.4036 5.76266 8.55052 
10.0863 4.23838 10.0733 
10.0538 7.02449 10.1824 
8.70923 5.71633 11.6187 
11.3954 5.67252 11.7184 
14.3868 5.48315 8.7694 
15.6313 4.17443 10.2435 
12.8867 4.28134 9.98394 
12.7813 7.01407 10.0887 
15.7476 7.05113 9.97667 
14.3157 6.01741 11.5339 
17.2162 5.56251 8.72728 
19.8465 5.87102 8.66683 
18.5293 4.13958 10.0945 
18.626 7.03666 10.0981 
17.1026 5.67268 11.5099 
19.9803 5.695 11.3486 
22.8733 5.75467 8.78902 
24.4617 4.24777 10.0947 
21.5326 7.19113 10.3274 
22.9906 5.54069 11.4421 
24.3873 7.11653 10.0745 
28.6285 5.68553 8.65252 
25.6999 5.65369 8.53583 
28.4479 5.69736 11.5989 
27.204 4.38718 9.9516 
27.0646 7.14596 9.984 
25.8239 5.75759 11.3972 
2.80626 8.86975 8.65023 
2.97038 11.652 8.90761 
0.0913295 11.5023 8.6511 
1.5265 10.2243 10.0282 
2.91361 8.67657 11.4326 
2.92002 11.6238 11.5367 
0.040287 11.6129 11.49 
0.0120309 8.53842 11.4481 
5.76782 8.56312 8.55869 
5.78612 11.4416 8.7573 
4.25338 9.99915 10.3321 
7.30465 9.95563 9.96054 
5.71029 8.58149 11.3662 
5.72328 11.4849 11.563 
8.56611 8.44611 8.8432 
11.541 8.51536 8.5966 
8.65979 11.405 8.66073 
11.4977 11.3033 8.63996 
10.2241 9.87453 10.085 
8.61292 8.63631 11.477 
11.5042 8.65381 11.5709 
8.60819 11.3508 11.5101 
11.5414 11.5727 11.4586 
14.3957 8.38584 8.70742 
14.3375 11.3072 8.42893 
12.8158 10.114 9.99086 
15.8012 9.85416 9.98134 
14.3131 8.64986 11.4145 
14.4113 11.3762 11.3694 
17.1038 8.51271 8.72149 
20.1278 8.72528 8.69187 
17.2785 11.3925 8.62812 
20.0127 11.4308 8.65139 
18.6111 9.97703 10.0122 
17.4833 8.58502 11.4376 
20.1612 8.64375 11.5041 
17.3152 11.582 11.5811 
20.184 11.4945 11.3681 
22.9574 8.6788 8.69742 
22.9534 11.5254 8.39959 
21.55 10.1594 9.97539 
22.9547 8.73995 11.4563 
22.952 11.6839 11.58 
24.4797 10.0474 9.97075 
28.6737 8.71094 8.84824 
25.8599 8.68816 8.61215 
25.8897 11.5963 8.67583 
27.2449 10.3364 10.1028 
25.8904 8.65242 11.3644 
25.9385 11.483 11.5359 
2.98523 14.2423 8.52569 
1.39883 13.0549 10.2201 
1.40104 15.8689 9.99845 
2.95506 14.5509 11.3528 
0.0114515 14.5699 11.4683 
5.65795 14.3792 8.60091 
4.25691 15.8306 9.78764 
4.44587 13.0257 10.0731 
7.22353 13.042 10.1389 
6.99693 15.7958 10.0098 
5.53808 14.335 11.5289 
8.60653 14.3394 8.51989 
11.2687 14.4507 8.57352 
10.1349 12.9149 9.99159 
9.9347 15.6985 10.1157 
8.61711 14.2254 11.6586 
11.3552 14.4349 11.3982 
14.4346 14.4405 8.54868 
12.7633 12.8227 9.81902 
15.8601 12.7245 9.96384 
12.7871 15.9111 9.98005 
15.8648 15.7539 9.94917 
14.2918 14.2436 11.2572 
17.0045 14.2907 8.80214 
20.0335 14.2847 8.64439 
18.524 12.9217 9.83527 
18.6235 15.6739 10.0361 
17.223 14.2908 11.3332 
20.0185 14.0884 11.3268 
22.8263 14.4128 8.61347 
21.5951 12.7136 10.0362 
21.4996 15.6014 10.1905 
22.9301 14.3115 11.3618 
24.3787 15.7511 9.97336 
24.4349 13.022 9.97851 
28.6095 14.2648 8.61758 
25.8069 14.4319 8.54547 
27.2627 13.0587 9.91578 
27.2805 15.804 9.91411 
25.9826 14.4308 11.4733 
2.66272 17.3593 8.44572 
2.82328 20.1865 8.57626 
0.0576035 20.1281 8.57135 
1.25039 18.7726 9.92321 
2.86099 17.3231 11.3007 
2.90726 20.0269 11.5749 
0.0394607 20.0957 11.4802 
5.78297 17.3529 8.69812 
5.84421 20.1908 8.7712 
4.27748 18.5342 9.98917 
7.27542 18.6773 10.1363 
5.75346 17.1816 11.5715 
5.85191 20.0843 11.4475 
8.68425 17.0763 8.67039 
11.3474 17.2632 8.56485 
8.92976 20.1064 8.54238 
11.5362 20.1062 8.40448 
10.1596 18.6308 10.0661 
8.54844 17.2055 11.3803 
11.4347 17.3145 11.4019 
8.8996 20.1485 11.5205 
11.4224 20.1099 11.4894 
14.4431 17.4392 8.63801 
14.4303 20.1517 8.572 
12.8945 18.7741 9.99642 
15.9409 18.7267 9.86777 
14.3393 17.1597 11.4061 
14.1414 19.9171 11.5295 
17.2108 17.2484 8.558 
20.2423 17.0419 8.64355 
17.4332 20.1351 8.44251 
20.0124 20.0609 8.7835 
18.6318 18.5573 10.1561 
17.1337 17.1306 11.5179 
19.9973 17.1262 11.3393 
17.1186 19.9445 11.6071 
20.1541 19.9868 11.3758 
22.9247 17.2864 8.65585 
22.9993 20.22 8.55237 
21.5537 18.6579 10.0276 
23.0094 17.1336 11.3206 
22.9797 20.1073 11.4849 
24.5009 18.8052 10.0472 
28.6542 17.3254 8.64831 
25.7899 17.4595 8.52584 
25.8902 20.4503 8.67845 
28.5992 17.1612 11.5423 
27.3319 18.7351 10.0102 
25.98 17.2316 11.4084 
25.8995 20.1977 11.529 
2.8805 23.0603 8.57768 
0.0536858 23.0161 8.64341 
1.55997 24.4151 10.062 
1.2815 21.5458 10.0691 
2.81926 22.7846 11.4342 
0.0900301 23.1523 11.5055 
5.81843 22.9403 8.78571 
4.24477 24.3338 10.0562 
7.23922 24.2902 9.986 
4.46598 21.3993 10.1359 
7.42943 21.4804 10.0238 
5.8245 23.0574 11.6168 
8.61649 22.9737 8.59248 
11.4702 23.0458 8.60573 
9.85171 24.3163 10.1809 
10.1833 21.6665 10.0654 
8.53878 22.8499 11.6341 
11.5441 22.9521 11.4837 
13.9735 22.9975 8.41316 
13.1036 21.6457 10.1146 
15.9808 21.4501 10.0465 
12.9844 24.3438 10.0094 
15.6206 24.1509 9.95275 
14.4359 23.0465 11.6024 
17.0934 22.9025 8.43243 
19.9238 22.8023 8.7738 
17.1422 22.9544 11.5398 
19.8599 22.9269 11.423 
18.4751 21.4882 10.1363 
18.5023 24.3537 10.0762 
22.916 22.9419 8.59185 
21.3964 21.5213 10.1728 
24.4751 21.7 10.2654 
24.5166 24.4281 9.98288 
22.9816 23.0454 11.518 
21.5701 24.3412 9.97555 
25.9053 22.7978 8.59433 
26.0577 23.0651 11.486 
27.3979 24.5985 9.89284 
27.527 21.6635 10.0494 
2.99589 25.8557 8.62937 
0.114045 25.9522 8.59209 
2.79129 25.8188 11.7059 
1.4962 27.4305 9.90793 
0.146676 25.8017 11.5497 
5.80076 25.9109 8.56457 
5.6558 25.8431 11.4491 
6.9663 27.2693 10.1267 
4.35506 27.3133 10.0902 
8.60056 28.6864 8.5538 
11.4778 28.5454 8.41437 
8.4945 26.1372 8.5537 
11.3404 25.959 8.58154 
11.3725 25.8228 11.4539 
11.5197 28.4765 11.2429 
8.44327 26.0198 11.3841 
9.95413 27.2034 9.94999 
8.64702 28.5007 11.4093 
14.3524 25.7996 8.46353 
14.5559 28.5809 11.3915 
14.3304 25.7975 11.573 
15.8178 27.1389 9.95424 
13.0276 27.0062 9.92941 
17.2052 28.5286 8.4651 
17.0799 25.7394 8.53977 
20.0624 25.7132 8.56564 
17.1952 28.6041 11.3674 
20.132 28.4692 11.5183 
17.2975 25.7095 11.3973 
18.7582 27.1619 9.89563 
19.9671 25.8913 11.6562 
23.0207 28.636 8.66689 
23.1492 25.9821 8.58943 
21.3312 27.2733 9.97762 
24.4848 27.3006 10.0977 
23.1966 25.9318 11.408 
22.9843 28.4247 11.505 
25.9038 28.704 8.72577 
25.9216 25.8108 8.44066 
27.3811 27.3078 10.0818 
25.8114 25.7772 11.4998 
1.33562 1.56274 12.8928 
2.73901 2.84905 14.2756 
2.75703 0.0582673 14.2932 
1.31539 1.45941 15.8756 
0.0387807 3.17079 14.4191 
4.30129 1.45999 12.9444 
7.33757 1.17809 12.8123 
4.3005 1.47871 15.8036 
7.05607 1.36219 15.8324 
5.86948 2.76571 14.3701 
10.1918 1.27487 12.7087 
11.6982 2.87863 14.2987 
8.61114 2.92594 14.3246 
10.0414 1.35939 15.8068 
11.4841 0.00974276 14.3771 
13.0038 1.20016 12.753 
15.7215 1.25319 12.9804 
12.7674 1.39125 15.8031 
15.8013 1.45138 15.8279 
14.5611 2.94439 14.42 
14.2985 0.106257 14.5785 
18.5545 1.25328 12.8311 
17.3453 2.81566 14.2618 
20.3253 0.0351519 14.2473 
20.236 2.71948 14.2855 
18.8873 1.24355 15.755 
21.5396 1.42816 12.7383 
24.5546 1.50648 12.9172 
21.6092 1.33342 15.7198 
24.4949 1.46503 15.7543 
22.9157 2.74761 14.3926 
27.4242 1.6232 13.1625 
27.3573 1.42692 15.8765 
25.8492 2.93369 14.3742 
1.50918 4.28955 12.7247 
1.3073 7.15072 12.8192 
1.51958 4.36097 16.0329 
1.3717 7.34306 15.4574 
2.75509 5.44501 14.4863 
4.42512 4.58021 13.0304 
4.24533 7.35156 12.8813 
7.15939 4.19689 13.0392 
7.09193 6.99369 12.9297 
4.17337 4.27931 15.7473 
4.17367 7.08785 15.7633 
7.08333 4.20515 15.8476 
6.90532 7.11024 15.7518 
5.7563 5.77377 14.3892 
10.0497 4.16764 12.9825 
10.0395 7.20813 13.101 
9.92895 4.24028 15.7501 
9.99998 6.95075 15.7464 
8.48835 5.73902 14.3597 
11.5955 5.58521 14.3872 
15.8359 4.3908 13.0326 
13.1293 4.13751 12.7632 
12.9149 7.39221 13.0445 
15.7104 7.2937 13.0787 
12.9561 4.39302 15.9302 
15.749 4.40475 15.885 
12.9881 7.04894 16.0295 
15.966 7.27664 15.8348 
14.439 5.67864 14.4845 
18.5659 4.24038 12.7963 
18.8468 7.09879 13.025 
20.0455 5.64919 14.1547 
18.5808 4.17417 15.659 
18.7618 7.18799 15.749 
17.4228 5.76393 14.5112 
21.5428 4.19262 12.8229 
24.5153 4.32314 13.0845 
21.6712 7.23723 12.9341 
24.3967 7.14106 12.8469 
23.0476 5.80087 14.2624 
21.462 4.3026 15.6081 
24.33 4.32183 15.6594 
21.454 7.15142 15.6384 
24.3129 7.15503 15.7871 
27.2054 4.29676 12.9623 
27.1862 7.21341 12.9167 
25.9262 5.71077 14.2786 
28.642 5.68426 14.339 
27.2771 4.32846 15.7929 
27.1692 7.19498 15.5761 
1.37852 10.0241 12.8575 
2.85858 11.4461 14.2417 
2.93522 8.58305 14.2168 
1.61297 10.0344 15.7011 
4.28861 9.98281 12.8294 
7.2926 10.1046 12.868 
5.64316 11.4117 14.1913 
5.77042 8.65232 14.2089 
4.33797 10.0744 15.809 
7.19327 10.081 15.7051 
10.0382 9.96496 13.0016 
8.48217 8.47278 14.3469 
9.97477 9.92242 15.9397 
11.3219 11.4729 14.3695 
11.5768 8.66605 14.4937 
8.72565 11.3394 14.4249 
12.8907 10.1591 12.7124 
15.7994 9.94987 12.9037 
14.4064 11.4817 14.2645 
12.8941 9.91208 15.8688 
15.7891 10.1144 15.8501 
14.4508 8.79902 14.3856 
20.0979 8.68523 14.2122 
18.796 10.2085 12.9429 
17.0767 11.4004 14.3413 
17.3008 8.52042 14.3347 
18.5009 9.94681 15.737 
20.0358 11.5719 14.419 
21.5314 10.2342 12.8549 
24.3901 10.096 12.9016 
22.9708 11.6902 14.2873 
21.4911 10.2416 15.7897 
24.3739 10.0811 15.621 
22.7682 8.7559 14.3878 
27.2258 10.1954 12.9126 
28.4664 8.64175 14.3706 
27.0628 9.96777 15.6108 
28.5923 11.3352 14.397 
25.7192 8.61617 14.3832 
25.7473 11.4102 14.3835 
1.42071 13.249 12.9118 
1.50022 15.8232 12.8941 
1.25156 12.954 15.823 
1.48652 15.8508 15.7331 
2.90521 14.2521 14.4311 
4.20263 15.7945 12.9186 
4.22791 12.8804 12.866 
7.14105 12.9448 12.9325 
7.05287 15.7454 12.9778 
5.62453 14.2969 14.2691 
4.34575 15.8475 15.7986 
4.29358 13.009 15.8505 
7.10876 12.8943 15.6609 
7.08541 15.8584 15.83 
10.1853 12.8093 12.8858 
10.0111 15.976 12.8081 
8.55506 14.2776 14.3388 
10.0188 12.8766 15.8929 
10.018 15.6904 15.7634 
11.4123 14.3652 14.3595 
12.7396 12.9751 12.9188 
15.7906 12.8322 12.8961 
12.7492 15.8728 12.7569 
15.8719 15.713 12.9966 
14.2646 14.4357 14.2222 
12.986 12.8615 15.7742 
15.6648 12.8982 15.7105 
12.8807 15.8403 15.7487 
15.7351 15.9318 15.8019 
18.6544 12.8637 12.9628 
18.649 15.5323 12.8965 
18.6965 12.8 15.7335 
18.6126 15.7133 15.8719 
20.1918 14.4364 14.4195 
17.2417 14.239 14.5718 
21.4928 13.0631 12.822 
21.4526 15.6876 12.9984 
24.5212 12.957 12.7964 
24.3041 15.8071 12.841 
23.0904 14.2137 14.261 
21.402 12.941 15.905 
24.3246 12.9891 15.8537 
21.546 15.8686 15.7889 
24.2337 15.8038 15.8254 
27.348 12.9748 12.9486 
27.2417 15.8352 12.8449 
25.7498 14.3377 14.3423 
28.5792 14.221 14.3821 
27.0494 13.0674 15.8639 
27.2018 15.788 15.6626 
1.57495 18.6979 12.8245 
3.07598 20.2718 14.2049 
2.8093 17.2699 14.248 
0.147823 17.4554 14.2008 
1.5901 18.7518 15.7879 
4.39534 18.6005 12.9633 
7.3443 18.8601 12.9856 
4.26088 18.5677 15.829 
7.3231 18.7546 15.8347 
5.73373 17.2515 14.4009 
5.78101 20.1898 14.4133 
10.1057 18.6788 12.9203 
11.6021 17.2274 14.2639 
8.79386 20.1895 14.3524 
11.5528 19.9901 14.3456 
10.3549 18.4897 15.8367 
8.53184 17.2508 14.4915 
12.8723 18.5638 12.8534 
15.4887 18.5291 12.8101 
13.0829 18.6051 15.7184 
15.8958 18.573 15.641 
14.2703 20.0472 14.3991 
14.5032 17.1809 14.4549 
17.3981 17.1192 14.3278 
18.5615 18.5491 12.9637 
20.061 19.9911 14.2818 
20.0413 17.1807 14.2914 
17.162 20.0455 14.2752 
18.5407 18.4968 15.8077 
21.5208 18.5465 12.836 
24.384 18.7354 13.0122 
23.0228 17.3276 14.416 
21.4943 18.7774 15.7651 
24.4667 18.6837 15.8111 
22.8531 20.0364 14.4173 
27.3137 18.7082 12.9634 
25.8162 20.2131 14.3339 
25.7831 17.0692 14.3664 
27.3848 18.6468 15.628 
28.6738 20.3127 14.387 
1.35375 21.5776 12.8757 
1.43857 24.2889 12.9267 
0.0529891 23.0538 14.3478 
1.37948 21.6823 15.8082 
1.42485 24.5594 15.6931 
2.97476 22.9749 14.3863 
4.40648 21.6551 12.827 
7.25719 21.3793 12.8549 
4.25424 24.3121 12.7638 
7.25734 24.3606 12.9342 
5.78971 23.0232 14.316 
4.23722 24.3863 15.7358 
4.43804 21.3815 15.7263 
7.25683 21.4781 15.8475 
7.16097 24.2181 15.7333 
9.88963 24.2311 12.8694 
10.1139 21.5103 13.0681 
11.4809 23.1355 14.2969 
8.57633 22.776 14.3545 
10.3128 21.6318 15.6886 
9.98749 24.323 15.7191 
12.8689 24.4805 12.9801 
15.8217 24.3825 13.0498 
12.9102 21.6004 13.1863 
15.7839 21.5643 12.8775 
14.2629 22.9144 14.3436 
12.9532 21.6187 15.6896 
15.6874 21.6188 15.8493 
12.7621 24.3919 15.677 
15.783 24.3582 15.6893 
18.5576 24.326 13.0367 
18.5942 21.5116 12.8926 
20.1801 22.9703 14.2681 
18.6119 21.5371 15.7662 
18.7825 24.4014 15.7889 
17.2169 22.8462 14.4898 
22.974 23.0544 14.2611 
21.3099 24.3633 12.8458 
24.3381 24.3551 12.9385 
21.5685 21.5659 13.0046 
24.5958 21.4947 12.8329 
21.5174 21.7514 15.7573 
21.3579 24.1738 15.8726 
24.3477 24.3758 15.6169 
24.2577 21.5413 15.7408 
25.9044 23.0351 14.2832 
27.3676 21.7011 13.0075 
27.3102 21.7397 15.794 
27.4287 24.4028 15.8266 
1.54014 27.3879 12.926 
3.01749 25.7718 14.2744 
1.35134 27.3812 15.9594 
0.0385182 28.6321 14.4769 
6.90893 27.3445 12.9683 
4.35477 27.4165 13.0279 
5.63358 28.6998 14.37 
4.53265 27.3056 15.8021 
7.16876 27.4512 15.713 
5.8532 25.7126 14.51 
8.62513 25.8709 14.246 
10.2466 27.21 12.8692 
8.6802 28.6708 14.3319 
11.4359 25.8765 14.3635 
9.93625 27.1124 15.7706 
14.3006 25.8546 14.2623 
15.792 27.3022 12.9876 
12.8529 27.3294 12.9689 
12.8503 27.3029 15.8102 
15.6692 27.1264 15.6848 
17.385 25.7265 14.2586 
18.7984 27.4207 12.8171 
18.7058 27.291 15.7951 
20.3241 25.9017 14.5436 
17.2308 28.7109 14.4252 
22.8489 25.6586 14.3316 
23.0924 28.5199 14.1684 
24.4866 27.0598 12.9401 
21.4716 27.0608 12.9268 
21.4773 27.2586 15.7123 
24.3893 27.2198 15.6558 
25.8767 25.8814 14.2954 
25.9838 28.6021 14.3166 
27.3471 27.3635 12.8484 
27.2808 24.6958 12.7729 
27.4599 27.1689 15.9441 
28.6993 25.7124 14.4538 
1.4075 1.58822 18.6771 
3.04938 2.90602 17.2105 
0.0238369 2.89066 17.1317 
2.91214 0.0701875 17.2789 
2.70963 2.9224 20.262 
3.05687 0.0213963 20.2094 
4.26711 1.59801 18.7807 
6.98794 1.27878 18.5029 
5.75483 2.77781 17.0827 
5.48791 0.121109 17.1231 
4.18842 4.10082 18.8847 
5.7995 3.02029 20.2711 
10.0671 1.46883 18.8268 
8.66026 2.80334 17.3601 
11.5311 3.01922 17.5167 
11.4518 0.143945 17.194 
8.53906 0.0192883 17.1304 
8.59849 2.88031 20.0268 
11.4708 2.94743 20.073 
8.55107 0.0633187 19.9753 
11.5959 0.0378054 20.0813 
12.9477 1.42239 18.7173 
15.893 1.59913 18.7867 
14.4243 2.85782 17.2389 
14.4178 2.92895 20.06 
18.7483 1.31744 18.7394 
17.3815 2.65743 17.1045 
20.0666 2.83451 17.0666 
17.4798 2.73435 20.025 
20.3303 2.86026 19.9339 
21.725 1.32571 18.4367 
22.9857 2.6647 17.1554 
24.4208 1.34432 18.8349 
22.9994 2.76476 20.1695 
27.0364 1.33575 18.8551 
25.882 2.89979 17.0703 
28.4757 3.11154 20.0986 
25.7784 3.06616 20.0675 
28.6224 0.0921277 19.9582 
1.35028 4.24366 18.4372 
1.37783 7.24691 18.7161 
2.80579 5.70741 17.3203 
2.64206 5.5527 20.1527 
0.0785368 6.04338 20.309 
7.12856 4.21441 18.6563 
4.24843 7.22314 18.545 
5.47043 5.72713 17.1579 
7.06806 7.11582 18.5435 
5.46217 5.62103 20.1746 
9.93272 4.22135 18.6066 
8.4819 5.75091 17.1061 
9.94054 7.36978 18.4947 
11.1883 5.79224 17.1369 
8.70483 5.74958 20.0618 
11.4192 5.73571 20.0584 
12.9893 4.43868 18.6322 