ITEM: TIMESTEP
39042
ITEM: NUMBER OF ATOMS
18
ITEM: BOX BOUNDS pp pp pp
0.0000000000000000e+00 2.8712000000000000e+01
0.0000000000000000e+00 2.8712000000000000e+01
0.0000000000000000e+00 2.8712000000000000e+01
ITEM: ATOMS x y z c_cna 
21.5436 10.0877 1.39211 5 
24.3884 10.0878 1.39213 5 
22.966 11.4912 2.96767 5 
22.9661 12.2356 0.742288 5 
21.1284 13.0725 1.57942 5 
22.966 14.3069 2.81364 5 
24.8035 13.0725 1.57942 5 
20.1319 11.4865 28.7053 5 
22.966 10.7375 27.9563 5 
21.1285 9.90048 27.1192 5 
22.9661 8.66623 25.885 5 
22.9661 11.482 25.731 5 
22.966 8.51214 28.7008 5 
25.8001 11.4865 28.7054 5 
24.8036 9.90049 27.1193 5 
22.966 14.461 28.71 5 
21.5437 12.8853 27.3066 5 
24.3884 12.8853 27.3066 5 
ITEM: TIMESTEP
39043
ITEM: NUMBER OF ATOMS
18
ITEM: BOX BOUNDS pp pp pp
0.0000000000000000e+00 2.8712000000000000e+01
0.0000000000000000e+00 2.8712000000000000e+01
0.0000000000000000e+00 2.8712000000000000e+01
ITEM: ATOMS x y z c_cna 
21.5436 10.0877 1.39211 5 
24.3884 10.0878 1.39213 5 
22.966 11.4912 2.96767 5 
22.9661 12.2356 0.742288 5 
21.1284 13.0725 1.57942 5 
22.966 14.3069 2.81364 5 
24.8035 13.0725 1.57942 5 
20.1319 11.4865 28.7053 5 
22.966 10.7375 27.9563 5 
21.1285 9.90048 27.1192 5 
22.9661 8.66623 25.885 5 
22.9661 11.482 25.731 5 
22.966 8.51214 28.7008 5 
25.8001 11.4865 28.7054 5 
24.8036 9.90049 27.1193 5 
22.966 14.461 28.71 5 
21.5437 12.8853 27.3066 5 
24.3884 12.8853 27.3066 5 
