ITEM: TIMESTEP
39000
ITEM: NUMBER OF ATOMS
2001
ITEM: BOX BOUNDS pp pp pp
0.0000000000000000e+00 2.8712000000000000e+01
0.0000000000000000e+00 2.8712000000000000e+01
0.0000000000000000e+00 2.8712000000000000e+01
ITEM: ATOMS x y z 
1.37609 1.46442 1.41693 
2.90354 2.88613 2.52335 
4.38034 1.39986 1.39351 
7.09619 1.40863 1.32562 
5.66744 2.93692 2.81012 
9.9748 1.60063 1.34532 
8.54417 2.80474 2.86655 
11.2031 2.91609 2.85118 
11.4121 0.249096 2.89059 
8.55799 0.0600602 2.69433 
11.4263 0.190121 0.112286 
12.9403 1.38875 1.36732 
15.8534 1.51905 1.47207 
14.1723 2.88739 2.81017 
14.195 0.0193987 2.85621 
14.396 2.82574 0.0470249 
14.3276 0.0051578 0.0429549 
18.8149 1.39719 1.70906 
17.1949 2.84244 3.00394 
20.1233 3.04775 2.93573 
17.0773 0.163859 2.94781 
19.854 2.67582 0.0149506 
17.1482 2.77098 0.0244158 
21.5332 1.4649 1.74941 
24.2163 1.49256 1.38526 
22.9662 2.9981 2.77996 
22.8064 0.0416839 0.213071 
28.5163 2.88134 0.00350565 
28.6043 0.089975 2.83392 
28.6739 2.8171 2.84474 
27.282 1.37729 1.43568 
25.7805 2.73552 2.9521 
25.7884 2.79827 0.00770681 
1.44081 4.23905 1.24389 
1.34243 7.08069 1.3583 
2.97241 5.67866 2.68512 
4.47617 4.37035 1.23279 
7.114 4.4054 1.2989 
4.28877 7.05679 1.2499 
7.32003 7.18114 1.27975 
5.82168 5.84498 2.74687 
9.95149 4.34673 1.47308 
10.1103 7.09728 1.44098 
8.58904 5.8478 2.78917 
11.5305 5.56679 2.91238 
15.7691 4.26793 1.38505 
12.7304 4.37061 1.24047 
12.9759 7.0983 1.41497 
15.7079 7.14516 1.55771 
14.237 5.54039 2.86444 
17.0466 5.6019 0.0416472 
18.7004 4.23984 1.30713 
18.5684 7.01199 1.20154 
17.1765 5.60303 2.74983 
20.0383 5.51816 2.83997 
20.0183 5.53708 0.00480014 
24.3988 4.14582 1.44842 
21.5107 4.39623 1.31512 
21.3852 7.05967 1.25426 
23.0141 5.82017 2.93376 
24.444 7.03798 1.54665 
28.5568 5.70601 2.87095 
27.2503 4.15113 1.37731 
27.2109 7.12404 1.64644 
25.7594 5.585 2.99911 
25.6958 5.49126 0.210282 
1.31153 9.9596 1.37283 
2.77849 8.53579 2.75973 
2.81594 11.3701 2.80814 
0.0456941 11.5151 2.78866 
2.78731 11.3128 0.0266831 
4.21908 9.87169 1.37621 
7.13528 9.91462 1.41109 
5.67316 8.52221 2.63645 
5.64052 11.3686 2.8403 
5.89166 11.468 0.0568197 
11.5166 8.54943 0.0524732 
10.1075 9.93691 1.15579 
8.69496 8.62413 2.82242 
11.4152 8.5522 2.93804 
8.62643 11.5019 2.76006 
11.5867 11.3333 2.81035 
14.4464 8.63697 0.0378229 
12.9198 9.96704 1.37922 
15.8213 9.97073 1.4494 
14.4772 8.48405 2.97677 
14.4924 11.3387 2.68127 
17.1907 8.52486 0.0173447 
18.5803 9.90338 1.27809 
17.2602 8.55891 2.75429 
19.9357 8.50224 2.88533 
17.2292 11.4775 2.83195 
20.2109 11.1291 2.91272 
21.5314 9.98762 1.38407 
24.505 9.76007 1.41081 
22.9515 8.33926 2.84465 
23.1166 11.4608 3.13685 
22.5594 11.8879 0.787945 
28.6437 8.61423 2.72682 
27.3138 10.0286 1.45173 
25.8644 8.71166 2.82593 
25.6442 11.3059 2.96174 
26.1311 8.53081 0.160613 
25.7546 11.3433 0.0277619 
1.51874 12.9403 1.48915 
1.42411 15.5431 1.5258 
1.43884 12.8523 4.09459 
3.00767 14.2249 2.79172 
2.83966 14.1157 0.00180119 
4.38105 15.5127 1.40704 
4.44659 12.5822 1.40911 
7.16917 13.0047 1.39349 
7.19853 15.6555 1.16267 
5.74751 14.2277 2.94135 
9.98642 12.7897 1.45705 
10.0822 15.679 1.41912 
8.6244 14.2367 2.79807 
11.3794 14.3073 2.92663 
12.7934 12.9773 1.64895 
15.8488 12.9343 1.30313 
12.874 15.5303 1.39677 
15.7713 15.7378 1.26436 
12.9327 15.8365 4.07132 
14.535 14.3332 2.86688 
15.8017 15.7675 4.10104 
14.1338 14.1525 0.0398009 
18.77 12.8201 1.44788 
18.6369 15.8177 1.14681 
17.2394 14.2548 2.66785 
19.8096 14.4692 2.86472 
21.152 13.2313 1.64191 
21.437 15.779 1.55948 
23.0591 14.3476 2.69746 
24.3335 12.7174 1.54418 
24.3282 15.9693 1.55202 
22.9165 14.4975 0.220847 
28.5148 14.3874 2.88677 
27.1776 12.839 1.50066 
27.2912 15.9616 1.42201 
27.1746 12.9773 4.05483 
25.8148 14.4743 2.64045 
25.6854 14.3492 0.225225 
1.53208 18.5398 1.31236 
2.89353 16.9359 2.68405 
2.97909 20.0108 2.85692 
0.0297407 17.244 2.79519 
0.0407282 20.2461 2.68199 
4.20295 18.5975 1.41366 
7.28498 18.6228 1.49409 
5.70258 17.0746 2.64919 
5.76697 19.8653 2.77651 
5.81254 17.2756 0.0876463 
11.3812 20.0645 0.0824286 
10.1415 18.607 1.36476 
8.61849 17.2659 2.73657 
11.6357 17.165 2.63327 
8.59221 20.0081 3.00736 
11.6446 20.0689 2.89656 
8.65691 20.1167 0.00634846 
12.9041 18.5954 1.31679 
15.4408 18.6666 1.33412 
14.3076 17.0581 2.58362 
15.7124 18.656 4.08368 
14.3669 20.124 2.77617 
18.4866 18.61 1.18975 
17.2419 17.2027 2.63011 
19.9663 17.3617 2.75488 
17.2846 20.0169 2.72595 
19.9897 20.138 2.89193 
17.0578 19.8351 0.00823588 
23.2524 20.2242 0.0130521 
21.4824 18.8007 1.43356 
24.1651 18.6221 1.63925 
22.8623 17.1436 2.97415 
22.918 20.2238 2.89914 
22.925 17.1934 0.029406 
27.2324 18.7405 1.4312 
25.8534 17.4989 2.86114 
25.9197 20.0057 2.80173 
25.6869 17.3208 0.0112958 
25.7157 19.9616 0.214975 
28.6131 20.1627 0.00432064 
1.53436 21.539 1.5266 
2.88065 22.9958 3.02406 
0.00401708 22.929 2.809 
1.2406 24.5133 1.71145 
0.100979 23.0291 0.0725203 
2.94661 22.8147 0.118586 
5.84831 22.8589 0.0557302 
4.27173 24.3537 1.45399 
4.3127 21.3634 1.42098 
7.15238 21.4352 1.40266 
5.72672 22.8082 2.80921 
7.28071 24.2535 1.30077 
7.24585 24.4876 4.09211 
10.183 21.5821 1.5705 
8.64272 22.9186 2.97704 
11.5118 23.0296 2.95778 
10.1588 24.3934 1.13977 
12.7036 21.6179 1.36519 
15.7788 21.4805 1.28067 
14.4011 22.8778 2.57528 
12.7977 24.5404 1.46899 
18.562 21.5502 1.45853 
17.0169 22.9809 2.79006 
20.0554 22.8583 3.01059 
18.5893 24.2306 1.65371 
20.023 23.0471 0.17094 
21.3623 21.5232 1.36101 
24.4012 21.6391 1.59195 
21.5596 24.3979 1.60763 
22.9506 23.0141 2.89072 
24.3523 24.5032 1.63686 
22.8598 23.097 0.228678 
27.062 21.5563 1.37151 
25.8598 23.0013 2.75979 
27.0735 24.4818 1.52621 
25.6526 23.1865 0.101286 
2.78706 28.6877 2.69234 
1.31666 27.1022 1.47426 
2.84586 25.7893 2.93457 
2.90447 25.8161 0.20344 
5.78804 28.6724 3.01436 
4.31416 27.3629 1.39534 
7.06066 27.2835 1.36556 
5.76567 25.7629 2.83192 
9.98512 27.4221 1.27546 
8.65517 25.9413 2.61206 
11.4558 25.9334 2.8343 
15.6811 24.6563 1.39246 
12.7445 27.4191 1.59666 
15.812 27.3878 1.50157 
14.2817 25.9209 2.9114 
14.3082 25.9178 0.130043 
20.0521 28.7036 2.90805 
17.0476 28.6961 0.0706982 
18.4846 27.2072 1.30722 
17.2532 26.0016 2.85659 
20.0287 25.9303 2.87217 
17.0347 25.7605 0.0855489 
19.9189 25.7528 0.208673 
22.9291 28.6145 2.95132 
21.3798 27.3148 1.37584 
22.8496 25.9641 2.92329 
24.3923 27.1163 1.44019 
23.067 25.7796 0.177093 
28.6583 25.8392 0.135675 
25.7489 28.6071 2.83843 
28.6056 25.8468 2.95484 
27.0956 27.2145 1.55209 
25.965 25.8723 3.14672 
25.9029 25.8929 0.00273191 
1.40978 1.28563 4.16167 
1.54088 1.42747 7.05359 
2.87307 2.90516 5.6952 
0.0109172 2.53326 5.58953 
2.80879 0.028286 5.71837 
4.17203 1.41685 4.14447 
7.0691 1.3155 4.36399 
4.49792 1.48969 7.20717 
7.15097 1.6034 7.21754 
5.74986 2.79698 5.66951 
9.96652 1.44606 4.38319 
10.1202 1.41293 7.13753 
8.66347 2.67643 5.62778 
11.4196 2.83811 5.80105 
12.7581 1.49316 4.21916 
15.7565 1.4693 4.37098 
12.7905 1.53104 7.22426 
15.7127 1.52793 7.27423 
14.3067 2.97599 5.72607 
14.318 0.158595 5.81459 
18.5905 1.58459 4.39703 
18.7461 1.4147 7.28887 
17.1616 2.91759 5.90335 
19.9669 2.93916 5.74998 
17.3123 0.180091 5.73147 
21.6069 1.46905 4.60083 
24.2359 1.33879 4.37305 
21.6084 1.3908 7.50572 
24.3196 1.43862 7.21858 
23.0466 2.87006 5.76945 
22.9938 0.0441463 5.96333 
27.0391 1.16352 4.24223 
27.2007 1.37712 7.0953 
25.8386 2.76326 5.85089 
1.59846 4.13072 4.16956 
1.29468 6.99814 4.41194 
1.43653 4.30452 7.0168 
1.24716 7.23465 7.25918 
2.78993 5.77301 5.74503 
4.12058 7.0853 4.12188 
6.86295 4.37319 4.21167 
4.32866 4.44817 4.22503 
7.09562 7.33102 4.2238 
4.32331 4.29254 7.23765 
7.12381 4.13091 7.22187 
4.30743 7.09765 6.95976 
5.58653 5.74205 5.69898 
7.29413 7.28231 7.08134 
9.98337 4.28788 4.36747 
9.96032 7.25861 4.4041 
10.1481 4.301 7.34106 
8.48258 5.57688 5.74976 
10.1804 7.13953 7.06188 
11.447 5.78159 5.78612 
15.8813 4.28036 4.40603 
12.8556 4.12665 4.49524 
12.8965 6.95849 4.30096 
15.8028 6.99509 4.42627 
12.9287 4.32225 7.27495 
15.7104 4.4132 7.24939 
12.9414 7.17059 7.36048 
14.3628 5.59545 5.80612 
15.8243 7.0658 7.2061 
18.5381 4.32043 4.33096 
18.8273 7.05834 4.26611 
18.6789 4.44 7.2423 
17.2096 5.65583 5.84059 
18.8179 7.22906 7.0569 
20.1299 5.81787 5.93013 
24.5304 4.28865 4.57685 
21.653 4.53515 4.37934 
21.3648 7.20854 4.24955 
24.4101 7.15016 4.41547 
24.3193 4.13585 7.39305 
21.6396 4.3638 7.11976 
21.5681 7.10522 7.28438 
23.152 5.93949 5.94272 
24.5241 7.38378 7.22262 
27.4424 4.15444 4.22064 
27.1536 7.19898 4.54542 
28.5553 5.70227 5.84705 
27.4288 4.16738 6.99776 
25.7997 5.78358 6.06681 
27.2496 7.25817 7.38807 
1.45203 9.95947 4.1855 
1.42894 10.0438 7.1233 
2.68572 8.50628 5.63915 
2.89543 11.4459 5.69042 
0.221657 11.6536 5.61622 
0.220963 8.57923 5.59295 
4.32518 10.0788 4.12357 
7.23567 9.97179 4.31705 
4.12607 9.73747 6.87459 
5.69596 8.49702 5.74722 
7.28962 10.0526 7.03385 
5.75076 11.4436 5.85335 
10.1741 10.1462 4.23014 
8.76435 8.81329 5.6831 
10.24 9.87496 7.08114 
11.6583 8.66192 5.66933 
8.60612 11.574 5.45166 
11.4896 11.4713 5.70151 
13.0485 10.0598 4.43189 
15.6881 9.97796 4.27859 
12.9781 9.95222 7.15997 
14.4184 8.38953 5.61494 
15.9052 9.87677 7.08059 
14.2979 11.4605 5.76553 
18.5379 10.0704 4.39617 
17.1963 8.49199 5.72789 
18.6547 10.1152 7.23788 
20.1693 8.79507 5.79077 
17.1762 11.3311 5.74411 
20.1368 11.4378 5.64803 
21.4747 9.94352 4.32964 
24.3789 9.94936 4.46641 
21.6429 10.1925 7.05822 
23.0051 8.64501 5.90381 
23.0255 11.5958 5.9163 
24.5192 10.1162 7.13426 
27.3376 9.87881 4.26512 
25.9235 8.62978 5.80007 
27.3641 10.2606 6.81927 
25.8602 11.5456 5.71511 
1.43354 15.713 4.22514 
1.57648 13.0106 6.8614 
1.47452 15.6098 7.10247 
3.00506 14.2922 5.5377 
4.31926 15.9929 4.28628 
4.4462 12.7813 4.48051 
7.17091 12.8643 4.27378 
7.39767 15.8314 4.1525 
4.35954 15.6703 7.19183 
4.34727 12.9836 7.12041 
7.35567 12.969 7.13648 
5.80893 14.3415 5.61872 
7.20964 15.7889 7.07556 
10.1561 12.9246 4.27178 
9.98744 15.9735 4.31496 
9.99376 12.7166 7.03352 
8.68377 14.4486 5.71985 
10.0038 15.8291 7.11539 
11.6189 14.3147 5.55618 
13.1327 12.8816 4.26148 
15.9009 12.8109 4.27847 
12.8048 12.8192 7.09938 
15.7986 12.7683 7.07394 
12.7484 15.7418 7.31661 
14.3508 14.192 5.71003 
15.7103 15.6269 7.2651 
18.5722 13.0523 4.23781 
18.4268 15.5257 4.27015 
18.5675 12.8152 7.15534 
17.1761 14.2984 6.03267 
18.7116 15.7132 7.1759 
19.9576 14.3246 5.69277 
21.508 12.8613 4.25958 
21.2965 15.6762 4.18953 
24.4402 13.1831 4.28723 
21.3665 13.013 7.05327 
21.5129 15.7704 7.09072 
22.8938 14.5323 5.70396 
24.3852 15.9419 7.02814 
24.4553 13.2831 7.11663 
24.6142 15.9235 4.19674 
27.0724 15.8229 4.20532 
28.6239 14.4854 5.62989 
27.1419 13.1204 6.98693 
25.9971 14.3786 5.56299 
27.3379 15.8077 7.18428 
1.54979 18.6525 4.14101 
1.55019 18.6531 7.09828 
2.8097 17.1178 5.6846 
2.85547 20.1697 5.73209 
4.31015 18.7633 4.38062 
7.11105 18.5419 4.33784 
4.31381 18.6444 7.13259 
5.72705 17.1803 5.94265 
7.15938 18.7494 7.07576 
5.72313 19.9937 5.67581 
10.0212 18.6725 4.41474 
8.64119 17.2837 5.7849 
10.1889 18.8895 7.16704 
11.712 17.0185 5.8448 
8.71939 20.1556 5.7695 
11.6295 20.2155 5.61275 
12.8336 18.5269 4.26762 
12.9132 18.6112 7.28975 
14.3711 17.1079 5.71642 
15.9774 18.5555 7.33605 
14.4183 19.9994 5.7416 
18.4939 18.5316 4.27603 
17.1995 17.1174 5.57397 
18.7126 18.7359 7.23168 
20.1399 17.1364 5.69866 
17.128 19.9478 5.75889 
19.9425 19.9543 5.71919 
21.5209 18.5881 4.23749 
24.4025 18.6825 4.31813 
21.4537 18.4523 7.08942 
23.1273 17.255 5.64184 
23.0146 20.1019 5.72742 
24.2035 18.7237 7.36539 
27.4835 18.6857 4.16565 
28.6793 20.1442 5.84852 
28.6642 17.3049 5.62892 
25.9514 17.3254 5.76447 
27.3879 18.6554 7.25528 
25.8957 19.8645 5.68773 
1.46171 21.4654 4.25847 
1.42357 24.3565 4.48753 
1.39551 21.5417 7.26617 
2.97656 22.8022 5.82787 
1.41809 24.5508 7.26216 
0.2047 22.9608 5.65768 
4.54542 21.5918 4.24503 
7.23207 21.6306 4.26318 
4.54773 24.5493 4.45793 
4.33704 21.5284 7.02314 
7.14412 21.7392 7.35571 
5.94559 23.1685 5.6989 
7.36882 24.4914 7.08159 
10.1542 21.4996 4.2364 
10.0757 24.4654 4.26279 
10.0862 21.5378 7.22959 
8.61636 22.9723 5.82617 
10.2281 24.2575 7.36661 
11.4004 22.9964 5.71584 
13.0988 21.5991 4.27104 
15.8889 21.4851 4.25106 
13.1089 24.44 4.1279 
15.9318 24.4458 4.10865 
13.1236 21.4133 7.13288 
15.8349 21.5599 7.13829 
14.462 22.8488 5.72476 
15.6986 24.3894 7.10399 
12.9702 24.3373 6.95382 
18.626 21.3965 4.49723 
18.8158 24.4844 4.28803 
18.4758 21.5398 7.01213 
17.2222 23.0719 5.62598 
19.9705 23.0452 5.70425 
18.5735 24.4252 7.09144 
21.4735 21.4091 4.32479 
24.4579 21.5291 4.42321 
24.4184 24.3997 4.33809 
21.4733 24.3984 4.26447 
21.4752 21.2547 7.09873 
21.5975 24.3206 7.05311 
22.89 22.8362 5.63592 
24.3534 24.2943 7.11677 
24.4352 21.448 7.20677 
27.2925 21.5024 4.28181 
27.346 24.2308 4.40988 
27.1784 21.6435 7.32292 
25.8422 22.9205 5.72504 
27.4526 24.36 7.27625 
1.47154 27.2195 4.23253 
0.0816576 28.6096 5.78238 
1.53699 27.1934 7.06852 
2.88555 25.9545 5.71997 
0.099106 25.8462 5.79483 
4.29626 27.1069 4.28183 
7.17615 27.0365 4.16522 
4.32658 24.6504 7.0928 
5.58703 28.6426 5.57745 
4.35022 27.4617 7.14751 
5.93598 26.0444 5.88056 
7.19784 27.3088 7.21139 
9.98606 27.3059 4.2807 
8.5653 28.6874 5.58539 
11.5825 28.6736 5.6219 
8.79051 26.0797 5.63632 
10.0202 27.3046 7.17782 
11.5468 25.8153 5.54734 
12.8962 27.3245 4.14219 
15.7881 27.3816 4.35517 
12.7518 27.1698 7.14879 
14.3032 25.767 5.59239 
15.6211 27.1873 7.01468 
18.6411 27.3753 4.35152 
20.0191 28.6915 5.79573 
17.1904 25.8079 5.67065 
18.4897 27.2592 7.29413 
19.9697 25.8376 5.77395 
21.3982 27.237 4.3629 
24.281 27.2303 4.29891 
21.6859 27.1837 7.14369 
22.9457 25.7775 5.57652 
24.4365 27.0737 7.36191 
27.3996 27.2723 4.37035 
25.8275 28.4463 5.72201 
25.9094 25.695 5.77677 
27.3738 27.1185 7.19445 
2.95288 2.9411 8.56602 
1.5516 1.53609 10.0032 
2.9167 2.96312 11.4971 
5.83098 2.94856 8.71119 
5.91758 0.106837 8.74107 
4.50046 1.34654 10.166 
7.19438 1.45912 10.2249 
5.92801 3.03927 11.6212 
5.78376 0.00500994 11.5836 
8.75749 2.86478 8.65557 
11.6054 2.74316 8.85125 
8.55558 0.168047 8.65279 
11.5632 0.0238449 8.69775 
10.1977 1.48978 10.0367 
8.77175 2.87541 11.3302 
11.5082 2.89464 11.4771 
8.72599 0.0877941 11.4266 
14.2222 2.76562 8.52133 
13.1437 1.29947 10.1166 
15.7749 1.37294 9.93417 
14.5659 2.8987 11.4221 
17.2697 2.89678 8.60195 
20.0205 2.90293 8.67425 
17.2767 0.0556205 11.5341 
20.1554 0.0110872 11.4782 
18.5104 1.43758 9.95401 
16.9452 2.92757 11.5426 
19.9238 3.02983 11.4747 
22.9986 2.76921 8.91444 
23.0517 0.176363 11.6029 
21.4436 1.53479 10.2034 
24.4052 1.50493 10.1102 
22.8422 2.86906 11.4449 
28.5849 0.102045 8.38317 
28.6812 2.78982 8.4327 
25.8373 2.79481 8.78198 
25.8964 0.00754556 8.71356 
25.7506 0.0578945 11.6745 
28.6835 2.82736 11.6535 
27.3548 1.50382 10.174 
25.9968 2.94846 11.5714 
2.92973 5.81606 8.47896 
0.046984 5.9222 8.52829 
1.43207 4.40645 10.2336 
1.53352 7.22071 10.2891 
2.88529 5.71578 11.5185 
5.96641 5.74376 8.50298 
7.49434 4.33331 9.991 
4.40925 4.34998 10.1047 
4.36564 7.11312 10.0612 
7.2315 7.0413 9.98073 
5.85685 5.63613 11.6434 
8.67222 5.83832 8.37259 
11.6055 5.6339 8.77814 
10.1623 4.55652 10.156 
10.1981 7.07061 9.97146 
8.578 5.90238 11.3743 
11.6088 5.74263 11.701 
14.2137 5.83823 8.69703 
15.6664 4.31235 9.88979 
12.9627 4.37013 10.1034 
12.8507 7.26221 10.1569 
15.6365 7.23815 10.2097 
14.3605 5.61538 11.436 
17.2127 5.86794 8.72031 
20.0501 5.69894 8.54365 
18.6297 4.46225 10.1932 
18.5705 7.15312 10.0212 
17.0639 5.64035 11.4151 
19.9896 5.74732 11.536 
23.0281 5.89001 8.64292 
21.469 4.42537 10.081 
21.5123 7.2312 10.1297 
22.9758 5.68462 11.4192 
24.386 7.24982 10.0237 
24.4002 4.38787 10.1453 
25.7813 5.67011 8.74101 
28.7042 5.76684 11.6545 
27.4068 4.21018 9.98667 
27.4455 7.15492 9.96846 
25.9901 5.77935 11.3526 
3.02111 8.50115 8.68852 
2.83854 11.3731 8.38814 
0.197315 11.7736 8.41626 
0.159196 8.70913 8.609 
1.66762 10.1701 10.0023 
2.97127 8.52435 11.5175 
2.91956 11.3 11.4834 
0.0804791 11.6273 11.4734 
0.109006 8.75141 11.5096 
5.61652 8.46767 8.46552 
5.88166 11.5342 8.3507 
4.49501 10.1903 9.91473 
7.23432 10.014 9.86899 
5.83717 8.45139 11.4484 
5.94846 11.291 11.5313 
8.74549 8.5698 8.63924 
11.5016 8.68581 8.59718 
8.59984 11.3792 8.4729 
11.4008 11.3263 8.54236 
10.1696 10.0715 10.041 
8.645 8.73678 11.5133 
11.4795 8.62274 11.3908 
8.51259 11.4799 11.3967 
11.4601 11.6189 11.5157 
14.2791 8.72477 8.62186 
14.3593 11.4895 8.45862 
12.8114 10.1131 9.96925 
15.7138 10.1284 9.92758 
14.2322 8.54954 11.5581 
14.2601 11.5544 11.4354 
17.2418 8.61694 8.5923 
20.0379 8.79925 8.68649 
17.1468 11.445 8.53446 
20.1562 11.5657 8.6399 
18.545 10.0879 10.1801 
17.0101 8.60843 11.4551 
20.0509 8.64622 11.6804 
17.0676 11.2759 11.4959 
19.9082 11.483 11.5001 
22.7728 8.81763 8.5379 
22.8798 11.7965 8.56728 
21.448 10.1886 9.97811 
22.9583 8.79931 11.3121 
22.9388 11.6133 11.6445 
24.4622 10.1356 10.0103 
25.8222 8.73046 8.69054 
25.8754 11.5044 8.44305 
27.3829 10.1041 10.071 
25.9557 8.70002 11.565 
25.7303 11.5518 11.4728 
2.87377 14.2756 8.42922 
1.77852 12.8508 10.0377 
1.44505 15.7336 10.0605 
2.98988 14.4149 11.3916 
0.0493065 14.4318 11.4606 
5.85667 14.3225 8.45401 
4.27441 15.7407 10.1343 
4.37673 12.7954 9.95601 
7.17361 12.9036 9.88073 
7.24147 15.7489 10.0819 
5.54265 14.3258 11.3096 
8.5854 14.3003 8.50867 
11.2728 14.3191 8.4797 
10.0323 12.694 9.86708 
9.92659 15.7879 9.98057 
8.66626 14.2881 11.4175 
11.2417 14.3452 11.412 
14.1952 14.1918 8.60254 
12.7885 12.8917 10.0635 
15.7431 12.8944 10.1291 
12.9102 15.7826 10.0702 
15.6768 15.4865 10.1243 
14.2835 14.4199 11.4996 
17.2654 14.4702 8.69129 
20.1197 14.2525 8.6033 
18.7445 12.9657 10.1607 
18.7897 15.6846 10.1134 
17.2509 14.3292 11.5547 
20.0642 14.4832 11.4638 
22.9907 14.5437 8.52739 
21.425 12.9778 10.1366 
21.5376 15.7853 10.1878 
23.0332 14.307 11.3879 
24.4372 15.7863 9.95456 
24.4204 12.9592 9.84986 
28.6853 14.3503 8.57375 
25.7401 14.3339 8.6251 
27.3123 12.8524 10.1787 
27.1092 15.8124 9.95003 
25.656 14.3985 11.5809 
2.88344 17.1245 8.80804 
2.64947 20.0197 8.63074 
0.172662 17.2967 8.48471 
1.44746 18.6716 10.0186 
2.86337 17.1908 11.4908 
2.85975 20.1863 11.4235 
0.0264574 17.0952 11.2556 
5.80208 17.3498 8.58427 
5.75363 20.0472 8.61221 
4.32159 18.7052 10.2016 
7.25056 18.4852 9.9769 
5.65027 17.2102 11.5209 
5.99915 20.0144 11.4408 
8.638 17.18 8.61592 
11.4739 17.2661 8.70137 
8.50196 20.042 8.58543 
11.6223 20.0744 8.60413 
10.1089 18.7567 10.0292 
8.62196 17.3355 11.5577 
11.6307 17.1163 11.6235 
8.58981 20.1957 11.4513 
11.4609 20.0655 11.4839 
14.413 17.1892 8.8199 
14.5266 19.874 8.66617 
13.0876 18.5318 10.1776 
15.8954 18.5994 9.98947 
14.4988 17.0324 11.4952 
14.3653 20.1201 11.5029 
17.195 16.9486 8.71798 
20.0713 17.2577 8.52572 
17.277 20.1508 8.67488 
20.0633 20.0924 8.69231 
18.7697 18.6025 10.0688 
17.1999 17.3108 11.5672 
20.1599 17.2311 11.398 
17.1932 20.0505 11.4999 
20.1802 20.0649 11.3439 
22.8868 17.1405 8.68042 
22.7587 20.0723 8.60091 
21.5308 18.4655 9.88527 
23.0237 17.1224 11.3891 
23.0094 19.9896 11.4442 
24.4307 18.626 9.892 
28.6286 20.2638 8.69206 
25.9576 17.2464 8.42504 
25.9642 20.1215 8.57982 
28.675 20.1241 11.6198 
27.2715 18.8362 10.08 
25.7901 17.2333 11.1595 
25.709 20.0939 11.6044 
3.0114 23.0185 8.4017 
0.0933325 22.9143 8.68775 
1.49351 24.3838 10.2484 
1.43597 21.5989 10.1367 
2.97465 23.0505 11.6403 
0.0980947 23.0254 11.3987 
5.6944 23.2154 8.57396 
4.15701 24.5321 9.95535 
7.13397 24.3786 10.0278 
4.37348 21.6488 9.99738 
7.22919 21.5163 10.0138 
5.78978 22.9217 11.5056 
8.69199 22.9998 8.53341 
11.6837 22.8338 8.62937 
9.90181 24.2677 10.266 
10.1562 21.5322 9.96554 
8.69397 22.8832 11.3915 
11.4522 22.9161 11.5342 
14.3697 23.0138 8.58703 
14.3806 22.8782 11.5164 
13.0623 21.5355 10.1136 
15.8588 21.5026 10.001 
13.004 24.3409 10.2654 
15.7139 24.4695 10.0491 
17.0867 23.0594 8.67874 
20.3012 22.9752 8.68346 
18.7853 24.2524 10.009 
18.6586 21.6007 10.0399 
19.96 22.8747 11.4865 
17.2088 22.9226 11.5248 
23.0947 22.9827 8.76275 
21.5387 24.2856 10.2529 
23.0282 23.1595 11.6347 
24.41 24.4537 10.1195 
24.5096 21.6179 10.1074 
21.5749 21.4053 10.1268 
25.6899 23.0667 8.56076 
27.1409 21.6683 9.99244 
27.1838 24.4386 10.1858 
26.0162 23.0704 11.5229 
2.65669 28.6214 8.55397 
2.75979 25.7018 8.72063 
0.0498498 25.8936 11.566 
0.0589009 28.6083 11.6668 
2.91691 28.7118 11.6155 
2.84731 25.8415 11.5643 
1.39863 27.2102 10.0174 
5.78405 25.919 8.67573 
5.73344 25.8865 11.4099 
7.10047 27.3379 9.85449 
4.21616 27.1991 9.98202 
8.73831 25.6991 8.61934 
11.5594 25.7949 8.76341 
11.387 25.7948 11.4184 
11.6349 28.6278 11.5259 
8.50754 25.8201 11.5443 
9.9753 27.2469 9.95709 
14.2869 28.6445 8.4538 
14.3266 25.8524 8.53103 
14.1844 25.9139 11.6665 
15.6168 27.1239 10.086 
12.9898 27.1874 10.096 
14.4187 28.5997 11.4586 
17.0383 28.6775 8.33492 
20.2298 28.6833 8.51195 
17.0059 25.7818 8.48292 
20.2776 25.6505 8.73311 
17.3656 26.0248 11.3661 
18.7015 27.4083 9.96742 
20.0287 25.6838 11.4108 
22.9866 28.6707 8.58908 
22.9463 25.6654 8.72056 
21.536 27.3133 9.90062 
24.379 27.3148 10.2047 
22.8915 25.8667 11.4127 
28.668 25.8977 8.82918 
25.9646 25.883 8.69292 
27.3173 27.2663 10.15 
25.9444 25.8286 11.6097 
1.435 1.48193 13.1746 
3.00092 0.269424 14.2748 
1.52084 1.42153 16.1016 
0.0314924 2.91621 14.4285 
2.87662 2.83483 14.5214 
4.42884 1.51644 12.8396 
7.24642 1.59066 13.0169 
5.77214 2.89624 14.3049 
4.22302 1.62994 15.8311 
7.12109 1.66843 15.8498 
5.5608 0.0643003 14.5971 
10.2961 1.35975 12.9945 
10.0233 1.56096 15.7546 
11.4681 0.0539521 14.5188 
11.5293 2.92336 14.3813 
8.64427 3.0003 14.3651 
14.328 0.129895 14.2545 
13.0661 1.49989 12.8515 
15.7576 1.57277 12.9725 
12.9457 1.49928 15.8111 
15.8385 1.41674 15.9733 
14.3863 2.95045 14.4255 
20.2395 0.136209 14.2886 
18.5475 1.52707 12.7677 
20.0898 2.8662 14.2035 
18.7019 1.5762 15.6559 
17.0012 2.74356 14.5818 
22.9539 2.9397 14.3311 
21.4799 1.46401 12.9111 
24.4878 1.45131 13.1061 
21.3307 1.59891 15.758 
24.3381 1.46682 15.7245 
22.8112 0.104868 14.5159 
27.2408 1.38461 13.0679 
27.1108 1.54869 15.903 
25.8626 3.05076 14.3733 
28.6845 0.0512652 14.4296 
1.31314 4.36992 13.0278 
1.52737 7.23841 12.8567 
2.80309 5.74277 14.2817 
1.51487 4.37621 15.6761 
1.49744 7.23784 15.791 
0.107829 5.85818 14.3956 
4.31235 4.27636 12.951 
4.27291 7.11997 12.9937 
7.3547 4.25568 12.9866 
7.2559 7.25783 12.7928 
4.24125 4.36801 15.8803 
4.19457 7.3031 15.7087 
7.14421 4.30004 15.7709 
7.19625 7.38757 15.8248 
5.64593 5.81727 14.4106 
10.177 4.31248 12.9191 
9.93798 6.96944 12.8059 
10.2113 4.27026 15.7692 
10.1806 7.14102 15.7504 
8.53931 5.80356 14.4462 
11.5161 5.69172 14.5284 
15.744 4.36576 13.0497 
12.889 4.28718 12.8991 
12.8831 7.16619 12.7838 
15.6541 7.28229 12.8505 
12.9128 4.21714 15.9551 
15.8339 4.44347 15.7836 
13.0255 7.08339 16.1704 
15.8394 7.29045 15.6965 
14.2251 5.73597 14.3959 
18.435 4.33108 13.0369 
18.7033 7.14783 12.9441 
20.0143 5.76839 14.2859 
17.0657 5.85094 14.3119 
18.6989 4.28794 15.7725 
18.5744 7.16277 15.8177 
21.4004 4.26184 12.9001 
24.284 4.31866 12.8701 
21.606 7.274 12.8091 
24.4587 7.16283 12.7606 
22.8379 5.75679 14.2585 
21.4182 4.24001 15.7619 
24.4447 4.49944 15.7254 
21.4986 7.1374 15.7214 
24.4446 7.34967 15.5645 
27.117 4.3867 13.0593 
27.3248 7.20825 12.913 
27.3713 4.40394 15.8652 
27.4533 7.23098 15.6894 
25.7152 5.73066 14.3566 
0.0353665 11.5742 14.3371 
1.39887 10.0859 12.7518 
2.96951 8.72604 14.2744 
0.074604 8.59643 14.284 
2.72989 11.7202 14.04 
1.50338 10.1575 15.8686 
5.64066 11.6556 14.2868 
4.46554 10 12.7685 
7.3672 10.1028 12.941 
5.71978 8.73919 14.3285 
4.15536 10.2718 15.5823 
7.02359 10.1109 15.5153 
10.0301 9.94032 12.785 
11.5254 8.38969 14.3079 
11.4567 11.3923 14.3239 
8.88216 8.65361 14.2228 
9.91306 10.043 15.7787 
8.71383 11.5 14.3614 
12.7586 9.99792 12.8624 
15.7555 9.96138 12.968 
14.2487 8.52625 14.3457 
14.2737 11.4104 14.3566 
12.8955 9.8672 15.7328 
15.5985 10.1273 15.648 
18.7279 9.8884 12.9342 
17.1479 11.4386 14.3432 
17.2536 8.64031 14.2878 
20.0374 8.56382 14.5138 
18.499 9.97911 15.7817 
20.1552 11.5279 14.3599 
21.4531 10.1705 12.9803 
24.5373 10.206 12.8914 
23.0862 11.6081 14.2118 
22.9537 8.72098 14.2108 
21.523 10.0052 15.7975 
24.2619 10.1853 15.5723 
27.3351 10.2377 12.942 
25.9213 11.4695 14.3509 
25.8708 8.60921 14.1701 
27.3346 10.0846 15.5968 
1.39415 13.052 12.721 
1.58042 15.764 12.9589 
1.34095 12.8267 15.832 
1.47512 15.9104 15.6981 
2.78397 14.2234 14.3886 
4.16757 15.8565 13.0098 
4.31793 12.8895 12.7293 
7.23466 12.9706 12.8715 
7.0044 15.7424 12.8394 
4.32044 15.7831 15.9368 
4.3191 12.9751 15.77 
7.37331 12.8383 15.689 
7.23519 15.6364 15.7408 
5.67763 14.4102 14.3983 
10.1084 12.7864 12.973 
9.9952 15.7171 12.9308 
11.6038 14.2944 14.3452 
8.6114 14.392 14.1607 
10.1075 12.8918 15.6733 
9.97339 15.6948 15.8388 
12.7994 12.9861 12.9054 
15.7894 12.9883 12.8738 
12.8165 15.7087 12.9715 
15.8587 15.8198 13.1154 
12.9082 12.7606 15.8118 
15.9076 12.8441 15.8748 
12.8406 15.7393 16.0224 
15.7086 15.8521 15.7986 
14.2415 14.3877 14.5203 
18.4906 12.8008 13.0909 
18.4094 15.7597 12.9567 
17.2298 14.359 14.3869 
18.649 12.8861 15.997 
18.6825 15.7828 15.9251 
20.1645 14.4137 14.3568 
21.3923 13.0999 12.8356 
21.4767 15.8002 12.8765 
24.3359 12.9078 12.8334 
24.415 16.0271 12.9805 
22.938 14.4072 14.2246 
21.5058 12.9831 15.7391 
24.3748 12.8937 15.7489 
21.666 15.6695 15.8246 
24.3909 16.2366 15.7521 
27.1371 13.1676 13.1502 
27.237 15.9173 12.9358 
27.1602 13.0098 15.9162 
27.1 15.9523 15.8803 
28.6872 14.4704 14.3674 
25.8317 14.6904 14.5672 
1.34547 18.6684 13.0102 
2.91243 20.106 14.2416 
1.27796 18.7975 15.7249 
2.90512 17.3263 14.506 
4.28073 18.7841 12.8689 
7.21373 18.6014 13.1098 
5.60013 20.0339 14.479 
4.2868 18.6638 15.7712 
7.16462 18.6546 15.7187 
5.81298 17.0742 14.4924 
11.5283 20.1054 14.3029 
10.0983 18.5152 12.8574 
8.71142 17.2692 14.3091 
8.58942 20.0601 14.5263 
9.96204 18.6472 15.7089 
11.493 17.1272 14.5096 
14.3641 19.9688 14.072 
12.6474 18.6352 12.9368 
15.7646 18.5163 12.8806 
12.8366 18.5498 15.9559 
15.6721 18.6549 15.6901 
14.2967 17.1341 14.4142 
16.9867 20.2021 14.3375 
18.5846 18.5621 13.0233 
20.1441 17.2519 14.2517 
20.0021 20.0735 14.3442 
18.5181 18.7388 15.7563 
17.2174 17.2282 14.3926 
23.0275 20.0707 14.192 
21.5805 18.4908 12.7701 
24.4113 18.5281 12.6758 
21.6249 18.7405 15.7225 
24.5461 18.7127 15.769 
22.7656 17.2362 14.3978 
27.4137 18.6038 12.8724 
25.8166 20.0266 14.2037 
27.2268 19.0305 15.9261 
28.5679 17.3599 14.5807 
25.9076 17.3332 14.3895 
28.63 20.3845 14.4203 
1.32586 21.5863 12.991 
1.33404 24.4904 12.9299 
3.04297 22.9115 14.1557 
1.67487 21.5745 15.9294 
1.57628 24.4796 15.9288 
0.0238373 22.8207 14.4175 
4.4306 21.4802 12.8774 
7.27918 21.5892 12.9698 
4.46315 24.2924 12.949 
7.08954 24.4532 12.9409 
5.91836 22.9381 14.2129 
4.41216 24.2954 15.836 
4.48185 21.5441 15.8751 
7.16168 21.6101 15.7762 
7.27444 24.5752 15.8028 
10.036 24.4751 12.88 
9.96339 21.5042 13.0781 
11.4965 22.9094 14.2842 
8.56384 23.0884 14.3961 
10.0535 21.6576 15.9334 
10.0652 24.4707 15.922 
15.6942 21.5902 12.9757 
12.9322 24.2033 12.9538 
12.8626 21.4828 12.9782 
14.3771 22.8492 14.3461 
13.0239 21.5553 15.8799 
15.878 21.6525 15.9337 
13.0258 24.3115 15.8806 
15.6798 24.2801 15.7857 
19.885 23.0069 14.3085 
18.4701 21.5358 13.0028 
18.4953 24.4203 12.9226 
18.5932 21.5858 15.7677 
18.6329 24.3892 15.9054 
17.1277 23.1892 14.3864 
24.3801 21.4032 12.991 
21.577 21.5902 12.8687 
24.534 24.3992 12.9645 
21.3838 24.2681 12.8786 
21.5273 21.4763 15.6986 
21.539 24.5623 15.8228 
24.3737 24.264 15.8428 
24.4564 21.4405 15.7384 
23.0561 23.0581 14.4537 
27.2477 21.4119 12.7599 
27.3695 24.1989 13.0757 
27.1854 21.5342 15.8328 
27.2567 24.3125 15.7894 
25.8343 23.15 14.3937 
2.96847 25.5304 14.2364 
1.47592 27.101 13.0792 
1.7141 27.3167 15.7843 
7.10781 27.4303 12.846 
4.24305 27.2175 13.0245 
4.22846 27.202 15.5283 
7.31962 27.2267 15.7863 
5.79507 25.8444 14.4216 
10.1766 27.2997 12.8216 
8.49594 28.7024 14.2903 
8.58196 25.9879 14.2979 
9.97297 27.3892 15.7421 
11.5233 25.7391 14.3951 
15.7732 27.4117 13.1419 
12.8451 27.2302 13.0983 
15.7932 24.6801 12.8586 
14.2695 25.84 14.2976 
12.9417 27.448 15.7138 
15.649 27.2878 16.0031 
18.7217 27.2806 12.8385 
17.1889 25.9677 14.2156 
20.0818 25.9757 14.3159 
17.1731 28.6048 14.3653 
18.6254 27.4705 15.6746 
22.9091 25.8411 14.2128 
24.2292 27.2037 12.8256 
21.5089 27.3211 12.7336 
21.5654 27.224 15.6985 
24.4523 27.2198 15.7567 
27.2593 27.369 13.0658 
27.4624 27.301 15.9218 
25.8106 28.5628 14.5399 
25.77 25.7938 14.4144 
28.5136 25.747 14.6056 
1.56579 1.50298 18.5189 
2.83545 3.09186 17.2368 
2.94151 0.130825 17.2511 
0.109119 0.0139839 17.4015 
3.00727 3.01579 20.155 
0.121602 3.03375 20.041 
4.20366 1.51864 18.5961 
7.06807 1.34903 18.5278 
5.7556 2.89162 17.2045 
5.69205 0.152054 17.0823 
5.70561 2.9563 20.1741 
5.62651 0.00243969 19.966 
10.0556 1.36905 18.7673 
8.74803 2.97997 17.1133 
11.4239 2.87491 17.3643 
11.4374 0.0367942 17.3062 
8.57944 0.0839468 17.1231 
8.45117 2.94394 20.0014 
11.7033 2.88314 20.1234 
8.42657 0.0697145 20.0897 
13.0809 1.37357 18.6926 
15.9534 1.32698 18.8648 
14.4164 2.77978 17.2306 
14.3638 0.0723978 17.2082 
14.4167 2.74141 20.1846 
18.8335 1.41952 18.6961 
17.2803 2.92564 17.2378 
20.0457 2.87195 17.039 
17.4049 0.180481 17.3241 
17.3405 2.88961 20.0296 
20.0204 2.85876 20.0454 
21.417 1.3152 18.8272 
23.0267 2.90136 17.2995 
24.416 1.37275 18.6905 
22.8385 0.282892 17.2819 
22.9044 2.85436 19.9672 
28.6287 2.91211 17.3257 
27.3074 1.30185 18.8095 
25.8332 2.87906 17.2278 
25.8178 2.79079 20.2136 
1.61968 4.40944 18.7598 
1.34033 7.09423 18.6764 
2.97293 5.81802 17.2152 
0.0780861 5.76359 17.1583 
2.90363 5.86282 20.1164 
4.33634 4.43738 18.6954 
7.15597 4.32539 18.6829 
4.25152 7.20289 18.7268 
5.81629 5.90953 17.1809 
7.14814 7.25637 18.6268 
5.84555 5.76314 20.0959 