ITEM: TIMESTEP
3041
ITEM: NUMBER OF ATOMS
18
ITEM: BOX BOUNDS pp pp pp
0.0000000000000000e+00 2.8712000000000000e+01
0.0000000000000000e+00 2.8712000000000000e+01
0.0000000000000000e+00 2.8712000000000000e+01
ITEM: ATOMS x y z c_cna 
15.389 15.6401 15.6401 5 
19.0641 15.6399 15.6401 5 
17.2265 14.4057 14.4059 5 
15.8042 18.6249 15.8275 5 
17.2265 17.2214 14.252 5 
18.649 18.6249 15.8275 5 
15.8041 15.8274 18.6249 5 
17.2265 14.2516 17.2215 5 
18.6489 15.8273 18.6249 5 
14.3924 17.2261 17.2261 5 
15.389 18.8122 18.8121 5 
17.2265 16.4768 16.4772 5 
17.2266 17.9755 17.9751 5 
19.0642 18.8122 18.8122 5 
20.0607 17.226 17.2261 5 
17.2266 20.2006 17.2308 5 
17.2265 17.2308 20.2004 5 
17.2266 20.0466 20.0464 5 
