ITEM: TIMESTEP
40000
ITEM: NUMBER OF ATOMS
2001
ITEM: BOX BOUNDS pp pp pp
0.0000000000000000e+00 2.8712000000000000e+01
0.0000000000000000e+00 2.8712000000000000e+01
0.0000000000000000e+00 2.8712000000000000e+01
ITEM: ATOMS x y z 
1.33104 1.42494 1.36296 
2.77587 2.99373 2.94967 
2.84433 0.0567768 2.73001 
4.21976 1.58721 1.53447 
7.15292 1.52602 1.42979 
5.77001 2.8983 2.98603 
5.73739 3.06999 0.141843 
10.1762 1.5099 1.55554 
8.45334 2.81975 2.89468 
11.5922 2.89333 2.96794 
10.0301 4.09908 1.37738 
8.52456 0.131302 0.135594 
11.5404 0.0294348 0.00430382 
13.0428 1.49016 1.51811 
15.883 1.49115 1.46956 
14.3024 2.72613 2.9519 
15.7473 3.9564 1.52391 
18.6602 1.48289 1.49125 
17.3726 2.88895 3.1398 
20.1644 2.96727 2.79659 
17.1323 0.0688398 3.01082 
20.2005 0.0296785 2.97298 
19.9879 0.145041 0.0033799 
17.2216 2.90116 0.00106683 
21.5309 1.41446 1.38471 
24.4925 1.48702 1.49785 
22.7657 3.08749 2.83681 
22.9105 0.215688 0.0711748 
28.5312 2.9294 2.81127 
27.2206 1.40585 1.49805 
25.8836 2.85559 2.89037 
25.7969 3.0303 0.0759817 
25.6989 0.0631596 2.80563 
1.30944 4.15639 1.42575 
1.27356 7.24362 1.48349 
2.72685 5.82517 2.78811 
2.83068 5.74519 0.162482 
4.20527 4.3563 1.48432 
7.22271 4.24949 1.42074 
4.34209 7.07846 1.42441 
7.30462 6.86449 1.47332 
5.74842 5.80442 2.82574 
10.2646 7.16225 1.51641 
8.82388 5.57304 2.74474 
11.5147 5.58854 2.88409 
12.9658 4.32953 1.30932 
12.9083 7.20633 1.26808 
15.7192 7.17089 1.45916 
14.3231 5.67593 2.89779 
18.6685 4.39556 1.44182 
18.2485 7.13624 1.46278 
17.1599 5.69804 2.79639 
20.1212 5.46359 2.949 
24.2653 4.35579 1.51848 
21.4484 4.16926 1.23236 
21.2612 7.05041 1.51462 
22.9846 5.59289 2.8934 
24.3515 6.98975 1.53893 
22.8973 5.71097 0.0717195 
28.6252 5.71557 2.82712 
27.2229 4.3936 1.37334 
27.23 7.12472 1.39734 
25.8797 5.70486 3.06251 
25.7877 5.6402 0.0102082 
1.47978 9.82502 1.62219 
2.85421 8.39573 3.00024 
2.88619 11.4393 2.86847 
2.86181 8.49822 0.104505 
2.97704 11.4754 0.0513095 
4.42362 9.84756 1.56699 
7.2227 9.8813 1.39926 
5.90487 8.23077 2.83883 
5.78571 11.3418 2.71282 
5.56032 11.4592 0.0503728 
9.89015 9.94352 1.56814 
8.63516 8.25113 2.99002 
11.483 8.49222 2.92598 
8.40052 11.5837 2.79211 
11.3815 11.6215 2.92989 
14.2288 8.81443 0.0131334 
12.6691 9.85499 1.4274 
15.5825 9.89954 1.60354 
14.1898 8.40544 2.79454 
14.2045 11.4598 2.94058 
18.3855 9.9528 1.41525 
17.2307 8.45823 2.91962 
19.9688 8.51145 2.80872 
17.1496 11.4522 2.81188 
20.0184 11.3356 2.9003 
17.0121 11.3267 0.0463389 
20.0677 11.4046 0.086977 
19.8864 8.46711 0.217979 
21.2807 9.89508 1.55993 
24.5 9.99991 1.44578 
22.9695 8.55474 2.82263 
23.0321 11.437 2.95505 
22.9838 11.4548 0.264419 
23.1837 8.64492 0.282493 
28.6664 11.5264 2.74232 
28.6365 8.63711 2.89396 
27.2713 9.97777 1.38665 
25.9232 8.57777 2.84684 
25.9159 11.3158 2.81966 
25.8871 8.25309 0.0642785 
25.8133 11.6927 0.130419 
1.50416 12.8733 1.23256 
1.3985 15.6524 1.22296 
2.87454 14.3885 2.75147 
5.71782 14.5352 0.129738 
4.19521 15.8164 1.40902 
4.36015 13.0476 1.3275 
7.23848 12.9743 1.16839 
7.1768 15.8926 1.30882 
5.76913 14.5088 2.80437 
9.94326 12.8828 1.34639 
9.93776 15.8064 1.25424 
8.4539 14.3667 2.90145 
11.3586 14.2036 2.76563 
12.7655 12.696 1.24566 
15.6535 12.7341 1.49347 
12.6547 15.8754 1.43443 
15.7857 15.6172 1.37929 
12.7598 15.8255 4.05295 
14.2542 14.2451 2.56829 
20.1002 14.1571 0.122608 
18.6105 12.8106 1.40187 
18.5338 15.8141 1.57325 
17.2236 14.3108 2.82278 
20.3284 14.2925 2.82831 
21.4884 12.8763 1.3299 
21.5289 15.7521 1.39072 
23.1083 14.3597 2.97762 
24.3872 12.9343 1.52503 
24.3444 15.781 1.48005 
28.5382 14.2529 2.8497 
27.3638 12.9342 1.24675 
27.2069 15.8634 1.49903 
25.8304 14.2544 2.78442 
1.34429 18.5864 1.14931 
1.44963 18.5547 4.05427 
2.91782 17.1548 2.5337 
2.72952 20.0813 2.77329 
0.125167 17.0628 2.62692 
4.13586 18.579 1.19215 
7.14168 18.6354 1.30292 
5.58907 17.2119 2.71678 
5.80198 19.9413 2.88807 
10.1846 18.6752 1.47089 
8.77067 17.3624 2.88876 
11.3578 17.3619 3.01194 
8.73299 19.9961 2.67452 
11.4663 20.1858 2.95352 
8.68803 20.0266 0.0240719 
14.3357 17.0528 0.134087 
14.359 19.981 0.0178812 
12.8035 18.658 1.61758 
15.7536 18.5585 1.45762 
14.3954 17.208 2.78672 
14.2577 19.8972 2.81671 
19.9874 17.1238 0.0408737 
18.7617 18.6785 1.53017 
17.0197 17.2277 2.73337 
18.5645 18.4588 4.10054 
20.0837 17.0393 2.88309 
17.1569 19.9331 2.79455 
20.0973 20.1143 3.11445 
22.8054 20.1062 0.285413 
21.3714 18.5796 1.37855 
24.291 18.6793 1.54802 
22.9264 17.047 3.01922 
22.8862 20.108 2.94154 
22.9293 17.3377 0.021103 
28.7013 19.998 2.74665 
27.2955 18.7657 1.48913 
25.9299 17.3118 2.86726 
25.8891 20.0538 2.95992 
25.7432 20.2049 0.082858 
1.3242 21.4802 1.32602 
2.92483 23.0628 2.6427 
1.4853 24.3502 4.04626 
1.51324 24.4255 1.42141 
2.84556 22.849 0.0413392 
4.31851 24.5192 1.32927 
4.36965 21.39 1.5342 
7.07649 21.4472 1.45068 
5.70555 22.9196 2.78493 
7.15073 24.4695 1.4284 
5.83759 22.941 0.0554787 
10.1686 21.452 1.37841 
8.44756 22.7836 2.87718 
11.42 22.9444 2.8614 
10.1386 24.4315 1.46676 
8.62535 23.0495 0.0903365 
12.9199 21.5116 1.37487 
15.6689 21.6694 1.5396 
14.3348 22.841 3.00106 
12.9651 24.2503 1.49239 
15.6623 24.3711 1.4276 
18.7275 21.5426 1.51859 
17.214 23.1731 3.02185 
20.1816 23.1201 3.04858 
18.7429 24.5737 1.55328 
17.1794 23.1183 0.116102 
21.4095 21.4819 1.51862 
24.5223 21.4284 1.61194 
21.4695 24.4077 1.48589 
22.9786 23.0188 2.86481 
24.4354 24.3512 1.58468 
22.9668 22.9706 0.163925 
28.6908 22.9877 2.7583 
27.2837 21.6733 1.47364 
25.7746 23.0323 2.88699 
27.3752 24.5149 4.0996 
27.1693 24.4531 1.48669 
25.7142 23.1191 0.11104 
1.49489 27.1792 1.4389 
2.91827 25.9311 2.80997 
0.0421858 25.8887 0.00598513 
2.86216 25.6284 0.160313 
5.81584 28.6308 2.96709 
4.43795 27.3417 1.60065 
7.23367 27.3143 1.53738 
5.95694 25.6961 2.81022 
5.82461 28.7108 0.10821 
11.4466 28.6736 2.83748 
8.65998 28.6633 3.1494 
10.1544 27.3877 1.40766 
8.55852 25.8837 2.73858 
11.5379 25.643 2.72225 
11.6623 25.7661 0.0625148 
14.532 28.635 2.70243 
12.8592 27.3194 1.41392 
15.8916 27.0952 1.30658 
14.257 25.7594 2.8332 
18.7214 27.3925 1.44403 
17.201 25.742 2.88426 
20.3401 25.8638 3.05986 
20.0689 25.854 0.0848044 
22.9871 28.5516 3.01584 
21.3258 27.3576 1.51727 
22.8751 25.9956 3.01581 
24.3682 27.3184 1.5734 
23.0042 26.0306 0.0873178 
28.6787 28.6739 2.90297 
28.6532 26.0445 2.81819 
27.3833 27.3178 1.45424 
25.7435 26.0333 2.97494 
25.8277 25.8504 0.0127795 
1.44346 1.40634 4.35859 
1.54838 1.59728 7.12004 
3.03618 2.85821 5.67327 
0.167128 0.0119614 5.71055 
4.25697 1.30994 4.3737 
7.18406 1.45601 4.6614 
4.23128 1.33239 7.14628 
7.09337 1.29934 7.13194 
5.7029 2.88193 5.96164 
10.041 1.52887 4.37971 
9.94282 1.20865 7.16088 
8.51521 2.8251 5.75353 
11.5376 2.68135 6.04038 
12.7547 1.25039 4.38782 
15.7456 1.51866 4.37703 
12.9183 1.42887 7.35573 
15.7796 1.36612 7.27614 
14.3558 2.7113 5.94598 
18.6717 1.49799 4.43789 
18.6345 1.56943 7.34944 
17.1456 2.70792 5.84798 
20.0712 2.91533 5.78769 
17.3355 0.03043 5.87495 
18.6993 4.03237 7.3143 
21.6366 1.44783 4.22845 
24.345 1.34025 4.28664 
21.4701 1.50133 7.11224 
24.3348 1.28054 7.20399 
23.1766 2.7741 5.83181 
22.7795 0.0363631 5.75898 
27.2096 1.45573 4.26734 
28.5605 2.84804 5.72087 
27.3478 1.58126 7.20755 
25.6789 2.79981 5.68332 
1.36538 4.30993 4.45413 
1.43523 7.14268 4.39258 
1.63557 4.29879 7.29529 
1.30995 7.16271 7.35276 
2.87867 5.68444 5.86531 
4.2747 7.20568 4.41648 
7.17769 4.27881 4.28595 
4.44721 4.3705 4.27223 
7.2685 7.13319 4.42616 
4.26972 4.3533 7.18788 
7.16412 4.36191 7.09657 
4.24005 7.2928 7.06648 
5.66016 5.75541 5.65553 
6.92831 7.29898 6.96903 
9.90482 4.25245 4.21893 
10.2659 7.15475 4.40913 
9.90782 4.24445 7.11796 
8.60689 5.7875 5.71599 
10.2162 7.14205 7.20062 
11.3212 5.52019 5.89719 
15.782 4.33963 4.46724 
12.9184 4.22272 4.31672 
12.9277 7.01252 4.26717 
15.6421 7.1676 4.46421 
13.0739 4.30094 7.26723 
15.8092 4.2376 7.38283 
12.6785 7.26081 7.17865 
14.2065 5.76036 5.83311 
15.8017 7.04976 7.02209 
18.7158 4.29139 4.40634 
18.649 7.13778 4.25036 
17.208 5.6878 5.71853 
18.658 6.98201 7.20636 
19.9494 5.54954 5.84377 
24.4617 4.46601 4.31054 
21.7188 4.1136 4.66979 
21.4136 7.19447 4.42021 
24.3038 7.08572 4.39234 
24.3407 4.31856 7.23723 
21.6491 4.27451 7.20744 
21.3754 7.16905 7.185 
22.952 5.96412 5.70935 
24.312 7.21764 7.10359 
27.3738 4.40371 4.33909 
27.2527 7.13235 4.28672 
28.6392 5.86719 5.85175 
27.2453 4.27484 7.25137 
25.746 5.74805 5.79275 
27.2193 7.28413 7.25718 
1.29699 10.1948 4.36071 
1.1911 9.94303 7.06424 
2.68426 8.65485 5.64656 
2.83865 11.6661 5.8065 
4.38679 10.0886 4.23539 
7.32159 9.97938 4.13803 
4.14549 10.0017 6.9795 
5.6511 8.73995 5.57509 
7.21816 9.9721 7.13062 
5.68516 11.6106 5.6283 
10.0999 9.93855 4.38982 
8.71358 8.55272 5.65292 
9.951 9.98754 7.18006 
11.3693 8.71981 5.91401 
8.57393 11.2327 5.75494 
11.4602 11.6059 5.79605 
12.9608 9.99367 4.34139 
15.8187 9.89751 4.27371 
12.8363 10.1341 7.29851 
14.2246 8.62651 5.8059 
15.7279 10.136 6.9887 
14.2102 11.6206 5.57445 
18.503 9.99579 4.34906 
17.3116 8.60315 5.76843 
18.4646 10.0976 7.06662 
19.7794 8.70506 5.85126 
17.1796 11.5659 5.65956 
19.8947 11.4562 5.71954 
21.6006 9.9516 4.25596 
24.5203 10.045 4.33522 
21.3511 10.028 7.16133 
22.8742 8.84684 5.64012 
22.9966 11.5758 5.73157 
24.3282 10.026 7.24322 
27.3955 10.0976 4.2897 
28.628 11.5603 5.64562 
28.593 8.50344 5.60921 
25.7593 8.53235 5.62444 
27.1333 10.1011 7.12193 
25.9379 11.5394 5.83602 
1.36371 12.9693 4.17831 
1.50176 15.8113 4.18425 
1.28957 12.9039 7.19839 
1.3147 15.7701 7.17458 
2.77663 14.3041 5.74792 
4.26054 15.6969 4.20491 
4.33483 12.8373 4.17532 
7.02282 12.9935 4.28531 
6.97111 15.8105 4.1633 
4.20037 15.765 7.27378 
4.30234 12.9127 7.19804 
7.11135 12.979 7.04698 
5.43155 14.319 5.74764 
7.11169 15.6878 7.07568 
9.88048 12.8374 4.24179 
9.90913 15.7633 4.25624 
10.0905 12.9471 7.13251 
8.56941 14.3717 5.61108 
10.0915 15.994 7.09138 
11.427 14.4859 5.6763 
12.8231 13.0791 4.31924 
15.547 13.0436 4.26133 
15.657 15.7401 4.22733 
12.9847 13.0753 7.04755 
15.7684 12.8997 7.04519 
13.0805 15.8979 7.16827 
14.1884 14.6742 5.50653 
15.9004 15.6805 7.05511 
18.5695 13.0249 4.20916 
18.7026 15.7204 4.37603 
18.6431 12.8773 7.15559 
17.2644 14.4762 5.72985 
18.7629 15.8003 7.22883 
20.3945 14.3628 5.81201 
21.5829 12.831 4.33789 
21.5753 15.7131 4.31254 
24.5121 12.8294 4.33655 
24.4421 15.7836 4.34724 
21.4837 12.893 7.17719 
21.4645 15.8626 7.1391 
23.0471 14.2156 5.7577 
24.4673 12.9133 7.09385 
27.2045 12.8751 4.2752 
27.2281 15.7817 4.3036 
24.6309 15.6307 7.34636 
28.6698 14.3047 5.59596 
27.4376 12.771 7.20347 
26.0622 14.3644 5.67408 
27.4093 15.7407 7.02468 
1.38025 18.7145 7.12845 
2.85609 17.2519 5.62241 
2.8391 20.0065 5.5784 
4.25385 18.6088 4.15872 
7.15595 18.5823 4.33972 
4.35272 18.6569 7.25244 
5.61925 17.283 5.77864 
7.21106 18.5509 7.24808 
5.68444 19.9816 5.78846 
10.0267 18.7513 4.34121 
8.54911 17.2059 5.75155 
10.0949 18.7903 7.19909 
11.395 17.1452 5.54891 
8.66602 20.1291 5.65953 
11.5382 20.1535 5.72698 
12.8625 18.5045 4.49528 
15.8225 18.7446 4.28613 
12.9259 18.6891 7.19265 
14.336 17.2308 5.77851 
15.9178 18.549 6.86688 
14.1103 20.073 5.6877 
17.3697 17.2339 5.58739 
18.7298 18.6636 7.23885 
20.1922 17.2324 5.76555 
17.5234 20.0966 5.74226 
19.9522 20.0399 5.79814 
21.5342 18.5019 4.2576 
24.3313 18.6857 4.22906 
21.6122 18.812 7.03933 
23.0889 17.207 5.70848 
23.2136 20.078 5.7993 
24.2986 18.6023 7.26695 
27.2997 18.4932 4.47848 
28.6273 20.1223 5.83643 
28.6775 17.2462 5.83683 
25.6837 17.3422 5.90337 
27.0685 18.499 7.29973 
25.806 20.0014 5.75766 
1.40101 21.5847 4.24256 
1.62371 21.4781 7.09985 
3.01928 22.9958 5.56582 
1.41115 24.1627 7.11365 
4.04029 24.3551 7.07401 
4.29576 21.5046 4.13517 
7.10284 21.3606 4.31205 
7.14657 24.3033 4.27931 
4.289 24.4731 4.20208 
4.26825 21.3597 7.14475 
7.21723 21.3204 7.17475 
5.69817 23.0336 5.49729 
7.09042 24.3893 7.07428 
9.98687 21.6296 4.33165 
9.98595 24.4732 4.2195 
10.0955 21.2294 7.16435 
8.58479 22.8463 5.86426 
9.96458 24.2755 7.30611 
11.394 23.0017 5.84397 
12.7682 21.5895 4.2639 
15.7029 21.5344 4.33404 
12.8875 24.2292 4.45927 
15.3833 24.6079 4.39462 
12.9386 21.5257 7.26916 
15.81 21.2257 7.08646 
14.4777 22.9907 5.91545 
15.8197 24.3316 7.24985 
12.9497 24.432 7.34064 
18.7013 21.7639 4.3375 
18.6332 24.5294 4.14479 
18.6915 21.6643 7.14406 
17.2286 22.9132 5.84183 
20.1978 22.8825 5.73728 
18.7075 24.2783 7.25003 
21.761 21.4509 4.34725 
24.3337 21.4481 4.4232 
21.5885 24.4304 4.34843 
21.5434 21.4828 7.29607 
21.5637 24.4735 7.18724 
23.0792 23.105 5.81024 
24.5513 24.5394 7.22043 
24.4098 21.5691 7.19899 
27.2338 21.4214 4.4082 
28.6075 23.0722 5.68824 
27.0804 21.5009 7.29284 
25.7901 23.1528 5.55682 
1.3271 27.2229 4.24227 
2.90935 28.6662 5.64722 
1.57262 27.173 7.2067 
2.65214 25.8045 5.74178 
4.02287 27.1467 7.18494 
4.24348 27.3353 4.15037 
7.1986 27.1056 4.46132 
5.72123 28.5398 5.67445 
5.61109 25.7281 5.73629 
7.04713 27.3053 7.08678 
10.1307 27.3135 4.35187 
8.66452 28.4919 5.69158 
11.5512 28.4964 5.78074 
8.63526 25.6402 5.73282 
9.94661 27.0804 7.06939 
11.5176 25.709 5.72633 
12.9431 27.3591 4.25376 
15.7207 27.3613 4.44846 
14.2725 28.6296 5.80981 
12.9604 27.123 7.39026 
14.2809 25.8205 5.94291 
15.9871 27.3178 7.23165 
18.5597 27.162 4.40709 
20.0538 28.6627 5.76411 
17.0754 25.6573 6.02079 
18.4712 27.3256 7.35337 
20.0199 25.7848 5.75478 
24.3552 24.79 4.29411 
21.4147 27.4015 4.377 
24.4481 27.2892 4.51027 
21.4075 27.19 7.09763 
22.8768 25.8265 5.91835 
24.382 27.3692 7.19723 
27.3015 27.398 4.45377 
27.2356 24.6408 7.0673 
28.6272 25.9373 5.76422 
25.805 28.6741 5.74719 
25.9036 26.029 5.81785 
27.3693 27.2379 7.28896 
2.99661 2.92264 8.70703 
0.0474237 2.8777 8.7287 
2.73928 0.0918798 8.72668 
1.45051 1.55423 10.1036 
2.89074 2.99592 11.6936 
0.00300997 2.9601 11.5222 
2.95722 0.163348 11.4492 
5.78875 2.71319 8.65665 
4.48266 1.63419 10.0649 
7.24464 1.37418 10.0543 
5.63513 3.03007 11.5616 
8.56558 2.76412 8.7011 
11.3629 2.87948 8.61684 
11.6328 0.116834 11.4866 
10.0299 1.53129 10.1852 
8.60643 2.84705 11.5135 
11.3991 2.95799 11.5871 
14.2714 2.94357 8.72452 
14.2469 0.0598885 8.67178 
14.3923 0.120957 11.4505 
12.8164 1.5701 9.99317 
15.8075 1.44432 10.1113 
14.4272 3.00317 11.5247 
17.2236 2.72072 8.73282 
20.1679 2.78293 8.84067 
17.2164 0.0848984 8.8085 
18.6357 1.48139 10.072 
17.3305 2.74229 11.5309 
20.13 2.80677 11.6219 
22.7839 3.03454 8.67827 
22.9178 0.202958 8.45519 
22.9641 0.0534148 11.4109 
21.5381 1.50092 10.0866 
24.2526 1.54382 10.0408 
23.0145 2.89522 11.6388 
25.6994 2.77812 8.59987 
25.8796 0.0692712 8.62485 
25.9217 0.100599 11.4343 
27.324 1.47809 10.0489 
25.7398 2.82071 11.5638 
2.89945 5.78404 8.49615 
1.37683 4.26585 10.098 
1.44656 7.07315 10.1395 
2.84614 5.73925 11.6475 
4.09976 7.08134 9.90351 
5.6861 5.82034 8.41471 
7.02177 4.13096 9.96853 
4.2022 4.49245 10.0316 
7.10448 7.14621 9.99641 
5.77539 5.75036 11.4527 
8.4227 5.87373 8.59227 
11.3551 5.66433 8.65646 
9.8782 4.34663 9.89202 
10.088 7.27242 10.1544 
8.72831 5.77439 11.5055 
11.5228 5.73671 11.4712 
14.2642 5.85862 8.724 
15.8298 4.43424 10.136 
12.8157 4.15107 10.1064 
12.8834 7.24131 10.0596 
15.8575 7.11345 10.0942 
14.3219 5.89943 11.3848 
17.1766 5.77993 8.69194 
20.1541 5.53004 8.57461 
18.5833 4.28461 10.052 
18.5569 7.24124 9.89753 
17.38 5.71252 11.5837 
20.0991 5.80054 11.37 
22.848 5.80085 8.75739 
21.4247 4.36491 10.0799 
21.4675 7.20468 9.86315 
23.0003 5.75667 11.3819 
24.441 7.12021 10.1243 
24.3623 4.3182 9.98411 
28.663 5.65313 8.71743 
25.7501 5.72871 8.64154 
28.6873 5.59581 11.4296 
27.1081 4.23825 10.0929 
27.354 7.22043 9.94329 
25.9691 5.72942 11.509 
2.71946 8.86077 8.58422 
2.93774 11.3684 8.4872 
0.0237566 11.4434 8.83608 
0.0504459 8.53202 8.57084 
1.35629 10.128 9.99991 
2.78025 8.54035 11.4456 
2.81285 11.5421 11.466 
0.0552722 11.4715 11.58 
5.59244 8.68598 8.55375 
5.75467 11.4084 8.42262 
4.20423 10.0315 9.98472 
7.04378 9.9165 9.96912 
5.55879 8.54568 11.6305 
5.71217 11.4106 11.4006 
8.55763 8.36711 8.65101 
11.472 8.58914 8.7552 
8.54963 11.7044 8.61702 
11.1749 11.5183 8.6971 
9.86905 10.2144 9.97374 
8.72718 8.55854 11.3844 
11.4881 8.7005 11.4248 
8.76566 11.3146 11.5802 
11.325 11.5856 11.4567 
14.5344 8.5998 8.59309 
14.2769 11.6864 8.42 
12.9164 10.0548 10.1173 
15.8824 10.0477 9.89854 
14.5441 8.67768 11.3077 
14.3246 11.5042 11.4539 
17.1036 8.61632 8.52529 
20.054 8.65328 8.52696 
17.2695 11.5163 8.47363 
20.1359 11.4757 8.67759 
18.7418 9.97429 9.95504 
17.2818 8.54045 11.6248 
19.8946 8.50437 11.398 
17.2549 11.3143 11.3895 
20.0103 11.5318 11.4 
22.7856 8.73421 8.65786 
22.9613 11.7318 8.47446 
21.4976 10.1324 10.0367 
22.9533 8.61033 11.4267 
22.9137 11.5473 11.5541 
24.3082 10.0036 9.90339 
25.8063 8.74 8.58717 
25.827 11.5615 8.73393 
28.6873 8.53593 11.4519 
27.2581 10.0451 9.95339 
25.9009 8.45468 11.2609 
25.8662 11.4425 11.418 
2.74788 14.2015 8.58154 
1.46085 12.872 10.0461 
1.47349 15.733 9.98487 
2.76976 14.4092 11.4611 
0.130623 14.3495 11.5557 
5.88053 14.3694 8.63266 
4.24537 15.6605 10.0199 
4.33851 12.9993 10.105 
7.11074 12.7352 10.0861 
7.31323 15.762 9.89822 
5.87362 14.4246 11.3616 
8.76927 14.4928 8.58976 
11.3775 14.4097 8.72515 
10.1008 13.0768 10.0843 
10.1157 16.0174 10.097 
8.69069 14.4271 11.5369 
11.6112 14.3251 11.3077 
14.2846 14.3966 8.59627 
12.9405 12.8796 10.0446 
15.8072 12.8916 10.0573 
12.9484 15.7795 10.0498 
15.7297 15.3566 9.93329 
14.3986 14.2096 11.5803 
17.3342 14.3199 8.44358 
19.9986 14.3527 8.56644 
18.5162 12.8395 10.0059 
18.7266 15.9378 10.1078 
17.4591 14.4637 11.4323 
20.0435 14.29 11.4988 
23.1689 14.2801 8.56733 
21.4381 12.852 9.95189 
21.6952 15.8931 10.0075 
22.8944 14.2739 11.4428 
24.4385 15.6606 10.0476 
24.3948 12.8716 10.2466 
28.6663 14.3851 8.7041 
25.9467 14.1198 8.72933 
27.2872 12.8929 10.1685 
27.4225 15.7461 10.1631 
25.9665 14.2559 11.6557 
2.88793 17.0918 8.48902 
2.97851 20.023 8.53283 
0.0438332 19.8549 8.5059 
1.50676 18.5752 10.0236 
2.88422 17.354 11.5161 
3.06695 20.0561 11.3661 
0.0310512 17.2557 11.5921 
0.0251136 20.0156 11.3693 
5.72657 17.0585 8.61677 
5.69571 20.0296 8.81399 
4.32668 18.5498 10.047 
7.37734 18.4005 10.0937 
5.92112 17.1593 11.3282 
6.05657 20.0071 11.4764 
8.74468 17.2575 8.69602 
11.4686 17.2637 8.47548 
8.68516 19.9606 8.54255 
11.5781 19.9524 8.71385 
10.1386 18.5762 9.99414 
8.73063 17.2221 11.4601 
11.4598 17.099 11.4444 
8.80316 20.1213 11.28 
11.5628 20.0327 11.4022 
14.3231 17.2155 8.5224 
14.2932 19.9488 8.67839 
13.1384 18.3412 10.2313 
15.9211 18.5348 10.1809 
14.544 16.9486 11.4156 
14.3304 20.0051 11.5398 
17.1788 17.1385 8.46521 
20.0443 17.3493 8.70879 
17.2205 20.1455 8.65395 
19.8927 20.1678 8.69048 
18.7165 18.663 10.1424 
17.3572 17.3324 11.4627 
20.2076 17.3988 11.644 
17.1636 20.1177 11.4528 
20.2878 20.0869 11.6643 
22.9194 17.2015 8.68377 
22.9659 20.0917 8.73815 
21.6059 18.7051 10.2106 
23.246 16.9786 11.6197 
23.2716 20.0015 11.6112 
24.3828 18.6058 10.2057 
28.5379 17.2371 8.63855 
25.8855 17.0594 8.74313 
25.749 20.0548 8.64987 
27.2477 18.5348 10.1644 
25.8332 17.0541 11.5496 
25.947 20.1638 11.5837 
2.87346 22.8541 8.53055 
0.0569425 22.8698 8.48396 
1.40532 24.2496 10.0056 
1.51476 21.3842 10.0972 
2.79142 22.788 11.4108 
0.125847 22.7197 11.4969 
5.87227 22.9824 8.50277 
4.30342 24.1325 9.91087 
7.13027 24.3632 9.85079 
4.323 21.558 10.1073 
7.29774 21.4117 9.99264 
5.71867 22.7722 11.4882 
8.70914 22.9233 8.605 
11.6715 23.0343 8.58435 
10.0699 24.4386 10.1455 
10.0211 21.4419 9.997 
8.73899 23.0085 11.4515 
11.5042 22.9933 11.4659 
14.5231 22.8801 8.602 
14.4462 22.9373 11.4768 
12.9334 21.3622 10.065 
15.5832 21.304 10.104 
12.9333 24.4768 10.1042 
15.8693 24.5052 10.1466 
17.3448 22.8776 8.60842 
20.0988 22.9779 8.62224 
18.7778 24.4634 10.0655 
18.5682 21.5966 10.0722 
20.0402 22.7125 11.4463 
17.1747 22.9448 11.4705 
23.0185 22.8588 8.77227 
21.6048 24.409 10.0715 
23.1293 22.8663 11.4199 
24.5142 24.362 10.0471 
21.54 21.5571 10.2193 
25.9505 23.0274 8.55111 
25.8268 22.9018 11.5926 
27.3623 24.4247 10 
24.6912 21.5166 10.1755 
27.1638 21.4609 10.097 
2.90796 25.6937 8.76369 
0.0173515 25.9353 8.72973 
1.42059 27.2604 10.0787 
2.83748 25.651 11.5378 
0.0735291 28.6194 11.6313 
0.128049 25.8117 11.5514 
5.52368 28.6046 8.61799 
5.51327 25.6695 8.6781 
5.95064 28.6985 11.4995 
4.30444 27.2268 10.1259 
7.28386 27.329 9.97404 
5.66695 25.6254 11.3089 
8.61038 28.7061 8.63019 
11.3385 28.6451 8.58564 
8.63302 25.7351 8.55469 
11.3646 25.7863 8.7188 
10.1325 27.335 10.08 
8.77409 25.8643 11.4896 
8.51993 28.3885 11.5469 
11.4477 25.9646 11.4677 
14.4716 25.88 8.64218 
12.8097 27.3415 10.0707 
15.7286 27.2866 10.0619 
14.39 25.7462 11.4529 
20.2059 28.642 8.71188 
17.2877 25.9368 8.72818 
20.0087 25.9338 8.58035 
20.2363 25.8237 11.5969 
18.7279 27.3343 10.1702 
17.2812 26.0097 11.71 
17.2214 28.6786 11.4788 
20.1466 28.5919 11.6589 
22.9984 25.8045 8.63677 
23.19 25.774 11.4601 
24.446 27.319 10.1083 
21.7179 27.1482 10.0537 
28.6535 28.6981 8.59019 
25.822 25.9812 8.72156 
25.8392 25.874 11.3558 
27.1986 27.3188 10.3391 
1.30473 1.43224 12.8848 
1.34058 1.51555 15.6744 
2.84519 0.147062 14.4155 
2.83269 2.75172 14.3855 
4.44936 1.62048 13.0966 
7.20472 1.24788 12.9057 
4.38625 1.55032 15.6457 
7.31441 1.50118 15.8731 
5.8801 2.97574 14.4998 
10.0674 1.41687 12.7951 
8.3191 2.95739 14.352 
11.7034 0.211833 14.038 
10.1352 1.50469 15.8274 
11.5179 2.93322 14.3919 
13.084 1.4796 12.789 
15.8638 1.29739 13.0587 
14.4587 2.80408 14.3547 
14.4499 0.0387165 14.3279 
12.8588 1.6393 15.9929 
15.7129 1.41665 15.9169 
18.7637 1.40455 12.9095 
17.1052 2.91373 14.2949 
20.0645 2.91002 14.2959 
18.7248 1.50278 15.7525 
21.5346 1.47076 12.7874 
24.4285 1.67667 13.1196 
21.5565 1.44159 15.9551 
24.3989 1.70189 15.8737 
22.9198 2.99939 14.4474 
22.9496 0.125956 14.6229 
27.2137 1.54336 12.87 
28.4766 2.84219 14.2435 
26.9865 1.55089 15.7036 
25.8264 0.123468 14.4816 
25.8173 3.08155 14.5178 
28.5707 0.0855014 14.3859 
1.4256 4.29489 12.8689 
1.47917 7.16047 12.8021 
0.141954 5.72255 14.3194 
1.37767 4.22206 15.8566 
1.47569 7.12158 15.7765 
2.84547 5.72688 14.3818 
4.30916 4.31466 12.9044 
4.27569 7.06944 12.9589 
7.25446 4.34966 12.8481 
7.27107 7.17495 12.9395 
5.63481 5.70073 14.2754 
4.33183 4.23849 15.6271 
4.35847 7.1525 15.8672 
7.19815 4.61183 15.7503 
7.28253 7.17732 15.7125 
10.0326 4.16074 13.0233 
10.1094 7.24237 12.7865 
8.6616 5.76311 14.2256 
11.3297 5.71792 14.2224 
10.1067 4.43076 15.8716 
10.1179 6.92361 15.6736 
15.8908 4.35808 12.8497 
12.879 4.41563 12.9399 
12.9023 7.26673 12.7948 
16.0353 7.17736 12.837 
14.2798 5.83668 14.2444 
13.0458 4.31864 15.7861 
15.8154 4.42637 15.7882 
12.808 7.14831 15.723 
15.5802 7.43319 15.7645 
18.7257 4.28662 12.9811 
18.6923 7.12115 12.9799 
20.0678 5.84036 14.3431 
18.7813 4.32783 15.7782 
18.6619 7.1631 15.7052 
17.0189 5.74716 14.4237 
21.6122 4.31099 13.0381 
24.3695 4.39694 13.0383 
21.6064 7.2186 12.5934 
24.5628 7.19969 12.803 
22.9269 5.8859 14.2914 
21.6397 4.4628 15.7846 
24.3825 4.36103 15.7751 
21.5403 7.16635 15.9416 
24.454 7.34886 15.8751 
27.1514 4.39844 12.9075 
27.3221 7.13558 12.6687 
27.3687 4.32865 15.7505 
27.2681 7.31267 15.6455 
25.7107 5.78029 14.5037 
1.48749 9.9872 12.92 
0.00386384 8.58775 14.2732 
1.53535 10.0448 15.772 
2.95239 11.5475 14.4985 
3.01128 8.6181 14.5059 
0.0691152 11.3344 14.4424 
4.27227 10.0463 12.9736 
7.33582 9.95137 12.8537 
5.8669 8.72981 14.3417 
5.69029 11.4633 14.328 
4.30993 9.95384 15.8004 
7.25185 10.0389 15.7643 
10.0157 10.0215 12.9596 
11.5321 8.58999 14.3351 
11.6507 11.5314 14.3043 
8.73218 8.62912 14.3069 
8.72804 11.5452 14.3505 
10.1174 10.0249 15.7506 
12.9669 10.1532 12.7517 
15.8124 10.2301 12.8519 
14.3742 11.4448 14.1365 
14.4038 8.77409 14.1166 
12.9367 10.0173 15.6858 
15.6785 10.2869 15.7818 
18.6192 9.88568 12.9166 
17.1922 11.3571 14.3446 
17.0561 8.69983 14.3481 
20.1175 11.5621 14.3343 
20.0686 8.42524 14.2407 
18.7889 10.0306 15.7984 
21.3604 9.9447 12.7177 
24.4289 9.84583 12.8774 
22.8983 8.48818 14.3178 
22.9976 11.3829 14.1894 
21.447 9.91474 15.7715 
24.2793 10.0999 15.7278 
27.3473 10.0245 12.9197 
26.0942 11.4646 14.2788 
25.933 8.66473 14.2633 
27.4213 9.94593 15.9316 
1.54431 12.7447 12.961 
1.68522 15.8116 12.8946 
2.80185 14.4163 14.3154 
1.50585 12.8849 15.764 
1.44077 15.814 15.9537 
0.130877 14.1836 14.4807 
4.29125 15.9454 13.095 
4.20344 13.0243 12.926 
7.3071 13.0262 12.8852 
7.34544 15.9059 12.9221 
5.69638 14.3628 14.1347 
4.245 15.6617 15.7108 
4.31952 12.9222 15.8861 
7.364 12.8695 15.7955 
7.1273 15.9569 15.9566 
10.0681 13.1294 12.9953 
9.94285 16.0365 12.9263 
11.4806 14.4655 14.3018 
8.6206 14.4594 14.393 
9.95751 13.0696 15.7464 
9.90609 15.9176 15.5889 
12.9858 12.9902 12.8273 
15.8367 12.9519 12.9412 
12.8804 15.8879 12.8696 
15.9635 15.7599 12.8284 
14.4958 14.6086 14.3446 
13.0564 13.0301 15.7241 
15.8635 12.8492 15.692 
12.9889 16.0506 15.8425 
15.7895 15.8166 15.9761 
18.5664 12.7893 12.8795 
18.7612 15.8819 12.8629 
17.4596 14.313 14.3305 
20.0795 14.2909 14.2303 
18.6806 12.6827 15.6845 
18.665 15.7418 15.7377 
21.4333 12.8114 12.8067 
21.48 15.7555 12.9561 
24.4739 12.8773 12.9243 
24.558 15.6997 12.986 
23.0059 14.2712 14.4222 
21.6343 12.8721 15.5834 
24.5812 12.8854 15.6744 
21.4793 15.6875 15.8941 
24.4153 15.7837 15.83 
27.4601 12.8473 12.8699 
27.4313 15.7141 13.0724 
26.0009 14.2094 14.1847 
27.2599 12.9548 15.7889 
27.1819 15.8943 15.7338 
1.46654 18.8732 13.0491 
0.367147 17.1219 14.3137 
1.52518 18.6938 15.8521 
3.06948 17.3168 14.3788 
3.24327 20.1222 14.4066 
4.45177 18.5496 12.742 
7.30866 18.6082 12.8642 
5.66894 20.1931 14.331 
4.43209 18.7244 15.8761 
7.24397 18.8533 15.7835 
5.84386 17.1542 14.4186 
11.5059 20.2209 14.2177 
10.1428 18.7344 12.8651 
11.4184 17.2684 14.2392 
8.60279 20.1165 14.2342 
8.63237 17.3195 14.5385 
10.2094 18.8917 15.6218 
14.5913 20.1153 14.181 
13.0057 18.8064 12.9248 
15.852 18.5945 12.7059 
14.3596 17.1586 14.3024 
12.9863 18.7761 15.6721 
15.785 18.8297 15.8167 
17.4121 19.95 14.2753 
18.7828 18.6139 13.0353 
20.068 20.1816 14.363 
18.7521 18.4851 15.7302 
20.3808 17.2811 14.4238 
17.2725 17.2461 14.4618 
21.8207 18.6016 12.9092 
24.4209 18.5578 13.1177 
21.4904 18.6454 15.7948 
24.3748 18.6144 15.7986 
22.9891 17.1684 14.4964 
22.937 20.1401 14.4391 
28.6843 20.101 14.3486 
25.8496 17.1242 14.167 
27.2913 18.5679 13.1038 
25.9914 20.0416 14.3571 
27.3422 18.4678 15.8091 
1.58784 21.6013 12.951 
1.39408 24.2652 12.9497 
2.98456 22.9774 14.5183 
1.55445 21.6999 15.7382 
1.52972 24.4935 15.964 
4.47308 21.5086 12.8258 
7.21323 21.4429 12.9043 
4.44771 24.5228 12.9315 
7.29557 24.2765 12.7938 
4.19045 21.5412 15.9436 
7.23128 21.4952 15.7978 
7.26176 24.3746 15.8436 
5.67285 22.9976 14.4114 
8.66763 23.0016 14.3438 
10.144 24.3991 12.9272 
10.1649 21.4857 12.8409 
11.7711 23.0064 14.4249 
10.0265 21.5316 15.5502 
10.16 24.3477 15.7545 
16.0186 24.3563 12.7831 
15.9524 21.5269 12.948 
12.9344 24.3378 12.8777 
12.861 21.5155 12.8441 
14.6672 23.0831 14.3332 
13.2032 21.4635 15.5401 
15.9401 21.2611 15.8431 
15.9699 24.5106 15.8664 
20.2327 22.8868 14.3447 
18.7402 21.5112 12.8555 
18.7122 24.177 12.9445 
18.7061 21.3861 15.8247 
18.6968 24.3757 15.7087 
17.3751 22.8395 14.4215 
24.4315 21.5816 12.9519 
21.6902 21.5767 12.8431 
24.534 24.467 12.95 
21.6835 24.2851 12.8354 
21.3505 21.5589 15.8669 
21.5684 24.208 15.72 
24.5023 24.497 15.7001 
24.328 21.452 15.9247 
23.1084 22.8883 14.3721 
27.3938 24.3533 12.9033 
27.3886 21.5595 12.9115 
27.2975 21.4301 16.0327 
27.1997 24.4565 15.9179 
25.9154 22.7416 14.3811 
28.6633 23.0605 14.475 
1.56351 27.3577 12.84 
2.7683 25.9284 14.2468 
1.35256 27.3795 15.6229 
0.00611585 25.8366 14.5232 
4.24914 27.3673 12.8729 
5.75012 25.9745 14.2757 
7.31026 26.9558 12.8511 
4.40811 24.6605 15.7769 
4.28102 27.3704 15.7628 
7.18288 27.0262 15.8339 
5.82373 28.6969 14.5268 
8.6574 25.7854 14.3264 
10.0393 27.2189 12.9515 
10.0151 27.3794 15.8609 
11.6542 25.9417 14.3644 
8.67211 28.5611 14.4019 
13.0073 27.2696 12.8502 
15.6955 27.2376 12.9522 
14.5086 25.7836 14.1468 
13.1547 24.6235 15.7539 
12.941 27.5147 15.6103 
15.775 27.3668 15.8282 
18.7435 27.3534 12.9032 
20.272 28.6701 14.2594 
18.7398 27.2371 15.7703 
17.295 25.8248 14.4085 
20.2771 25.7724 14.4546 
17.2989 28.5905 14.4305 
21.7112 27.2201 12.9893 
24.3357 27.3708 13.0389 
23.0186 25.7166 14.2334 
21.5072 27.2047 15.8081 
24.4733 27.1367 15.7311 
27.3399 27.3207 12.8192 
25.9391 25.9715 14.3048 
27.3403 27.5673 15.9041 
1.34054 1.47403 18.7794 
2.65813 2.83606 17.2019 
2.75101 0.138336 17.0651 
0.0290003 0.249489 17.3874 
2.74001 2.86196 20.0169 
0.207303 2.9322 20.2976 
0.0580708 0.0314163 20.0553 
4.40555 1.46799 18.6792 
7.12334 1.56343 18.6155 
5.76135 2.90838 17.2018 
5.82923 0.0816033 17.0135 
5.66979 3.03788 19.9483 
5.86413 0.0722394 20.0057 
9.9592 1.5371 18.5673 
8.61927 3.09792 17.1218 
11.5543 2.95539 17.1782 
11.5027 0.100106 17.291 
8.60915 0.0849935 17.3616 
8.55752 2.90327 19.8487 
11.5476 2.83719 20.2006 
12.7614 1.38035 18.747 
15.8857 1.41198 18.8252 
14.369 2.75957 17.3324 
14.3384 0.0018766 17.1832 
14.3137 2.75025 20.2409 
14.2285 0.058213 20.163 
18.6655 1.6482 18.5402 
17.1316 2.79836 17.2772 
20.2129 2.94704 17.0209 
17.3732 0.0182528 17.1406 
20.1774 0.266921 17.2727 
17.2332 2.86389 20.003 
20.0692 2.98997 20.0013 
20.1225 0.0311153 19.9738 
21.6089 1.51056 18.5207 
23.0686 3.17221 17.2088 
24.4249 1.41062 18.7208 
22.9329 2.80218 19.925 
22.8517 0.165816 20.1423 
28.5087 2.86798 17.1652 
27.3617 1.43301 18.6639 
25.8516 2.84874 17.4473 
25.9559 0.048334 17.3847 
25.9685 2.86657 20.1495 
1.40682 4.41832 18.619 
1.36091 7.15259 18.6901 
2.82618 5.74416 17.1918 
2.75478 6.02473 20.4019 
4.15006 4.39532 18.5813 
7.22978 4.56567 18.5788 
4.20548 6.99063 18.682 
5.79826 5.72119 17.3753 
7.22775 7.34753 18.5584 
5.80431 5.76501 20.1753 
10.0949 4.32516 18.7205 
8.68078 5.75602 17.3336 
10.1906 7.03523 18.7031 