ITEM: TIMESTEP
41040
ITEM: NUMBER OF ATOMS
18
ITEM: BOX BOUNDS pp pp pp
0.0000000000000000e+00 2.8712000000000000e+01
0.0000000000000000e+00 2.8712000000000000e+01
0.0000000000000000e+00 2.8712000000000000e+01
ITEM: ATOMS x y z c_cna 
22.966 11.482 0.0977988 5 
22.9659 11.4912 22.8612 5 
21.5435 10.0878 24.4368 5 
24.3884 10.0878 24.4368 5 
22.9659 14.3069 23.0153 5 
21.1282 13.0727 24.2494 5 
24.8036 13.0727 24.2494 5 
20.1318 11.4866 25.8356 5 
22.966 8.66634 28.6558 5 
22.966 10.7374 26.5845 5 
21.1284 9.90062 27.4216 5 
22.966 8.51218 25.8401 5 
22.9659 12.2357 25.0866 5 
24.8036 9.90058 27.4215 5 
25.8002 11.4866 25.8355 5 
22.966 14.461 25.8309 5 
21.5436 12.8854 27.2343 5 
24.3884 12.8854 27.2343 5 
ITEM: TIMESTEP
41041
ITEM: NUMBER OF ATOMS
18
ITEM: BOX BOUNDS pp pp pp
0.0000000000000000e+00 2.8712000000000000e+01
0.0000000000000000e+00 2.8712000000000000e+01
0.0000000000000000e+00 2.8712000000000000e+01
ITEM: ATOMS x y z c_cna 
22.966 11.482 0.0977988 5 
22.9659 11.4912 22.8612 5 
21.5435 10.0878 24.4368 5 
24.3884 10.0878 24.4368 5 
22.9659 14.3069 23.0153 5 
21.1282 13.0727 24.2494 5 
24.8036 13.0727 24.2494 5 
20.1318 11.4866 25.8356 5 
22.966 8.66634 28.6558 5 
22.966 10.7374 26.5845 5 
21.1284 9.90062 27.4216 5 
22.966 8.51218 25.8401 5 
22.9659 12.2357 25.0866 5 
24.8036 9.90058 27.4215 5 
25.8002 11.4866 25.8355 5 
22.966 14.461 25.8309 5 
21.5436 12.8854 27.2343 5 
24.3884 12.8854 27.2343 5 
