ITEM: TIMESTEP
41000
ITEM: NUMBER OF ATOMS
2001
ITEM: BOX BOUNDS pp pp pp
0.0000000000000000e+00 2.8712000000000000e+01
0.0000000000000000e+00 2.8712000000000000e+01
0.0000000000000000e+00 2.8712000000000000e+01
ITEM: ATOMS x y z 
1.27307 1.37145 1.48361 
2.72545 2.72509 2.77034 
0.0919875 2.85337 2.99387 
0.0601259 0.104262 3.00695 
2.64933 2.83526 0.0428001 
4.16419 1.52395 1.35863 
7.0638 1.44154 1.57693 
5.6149 2.87121 2.9536 
5.60382 2.98554 0.0318326 
5.69565 0.0418681 0.0435798 
10.1075 1.55626 1.46826 
8.49851 2.66626 2.90591 
11.5529 2.75566 2.86679 
11.4571 2.93479 0.057717 
8.52199 2.78628 0.0569743 
12.853 1.45822 1.50961 
15.7733 1.35698 1.41304 
14.2699 2.81026 2.92136 
14.4136 0.00202204 2.99244 
14.2865 2.6361 0.00393263 
18.4932 1.46283 1.37373 
17.1179 2.9967 2.95718 
19.9204 2.73163 2.86067 
20.0945 0.191601 0.0995757 
17.1107 2.90277 0.00312223 
20.0063 2.75339 0.0434611 
21.4297 1.42706 1.51533 
24.3969 1.32902 1.4929 
23.1638 2.92646 2.75862 
23.0142 3.04677 0.0150692 
27.3299 1.29378 1.40477 
25.828 2.95039 2.89741 
25.7064 2.99059 0.138155 
25.8488 0.0528031 2.98951 
28.6112 0.0137095 0.0332445 
1.36205 4.36744 1.49542 
1.55044 6.92802 1.32748 
2.83965 5.66709 3.02261 
0.0986506 5.65142 2.84836 
4.3156 4.33867 1.64002 
7.0191 4.32514 1.53895 
4.16694 7.0938 1.65526 
6.94907 6.98377 1.45704 
5.5467 5.76944 3.07648 
5.53789 5.65797 0.0695587 
9.84529 4.3844 1.5537 
9.95142 7.15541 1.48 
8.46245 5.79857 2.91618 
11.3638 5.64882 3.11344 
11.4 5.45727 0.14367 
15.7027 4.21873 1.526 
12.9033 4.35048 1.60149 
12.8584 7.00607 1.67067 
15.7411 7.13752 1.39952 
14.4033 5.85854 3.12566 
14.0828 5.63825 0.0550085 
18.6424 4.29409 1.37251 
18.5388 7.11902 1.42427 
17.1566 5.81824 2.86242 
20.0481 5.85584 3.07663 
17.2272 5.78818 0.00388074 
24.3695 4.50305 1.55691 
21.4752 4.14075 1.43213 
21.5741 7.03907 1.41375 
21.4912 4.23413 4.07943 
23.0211 5.70604 2.88667 
24.3633 7.22866 1.61199 
27.2768 4.17323 1.45309 
27.3112 6.93215 1.42902 
25.9349 5.72982 2.98989 
1.32089 10.1219 1.32776 
2.62756 8.64659 2.8203 
2.79214 11.45 2.7622 
2.85121 8.49135 0.0746425 
2.88829 11.3695 0.0112335 
0.0162621 11.4622 2.76916 
0.226838 8.5877 2.85129 
0.0639979 8.50434 0.245343 
4.19095 9.823 1.47432 
7.29839 9.87643 1.44073 
5.60668 8.56027 2.983 
5.62325 11.4094 2.89102 
5.67916 11.3396 0.0237158 
5.70323 8.59893 0.0194043 
9.89519 9.96386 1.36328 
8.57502 8.59678 2.92598 
11.0276 8.50051 3.12793 
8.45398 11.4974 2.89952 
11.2861 11.5524 2.96416 
11.3783 8.44456 0.0151597 
14.3428 8.72033 0.0183349 
12.6235 10.1542 1.56698 
15.6397 10.1799 1.51596 
14.19 8.79384 2.93863 
14.0706 11.6731 2.99049 
14.4428 11.6255 0.0116572 
18.5138 10.1722 1.39063 
17.0636 8.7777 2.93314 
20.0202 8.53388 2.83217 
16.9525 11.6341 2.88806 
19.9188 11.5153 2.7282 
20.1271 11.6558 0.16294 
19.8978 8.46865 0.186495 
17.2981 8.77008 0.055445 
21.3292 9.97821 1.61873 
24.4335 9.92075 1.45329 
22.949 8.72017 3.05063 
23.1368 11.3407 2.89763 
22.8323 11.3563 0.258259 
22.7755 8.69945 0.00833807 
27.3545 9.91833 1.4841 
25.9202 8.71099 3.0343 
25.8784 11.5472 2.76252 
26.1758 8.38414 0.281948 
25.6457 11.4632 0.0669293 
28.5588 11.5159 0.0358976 
1.36073 12.9697 1.43726 
1.37513 15.7802 1.51792 
2.82313 14.3783 2.86323 
2.83436 14.3858 0.145721 
5.89304 14.4809 0.16242 
4.16759 15.8639 1.42739 
4.5025 12.7855 1.44886 
7.38597 12.8621 1.40138 
7.39661 15.9351 1.59068 
5.78999 14.3039 2.93317 
9.98384 12.9707 1.42114 
10.1952 15.7824 1.43121 
8.53956 14.4241 2.96653 
11.4369 14.2698 2.91563 
8.79298 14.5542 0.0206402 
12.7718 12.9572 1.33317 
15.6976 12.9406 1.3576 
12.9405 15.7566 1.30732 
15.7676 15.7724 1.38103 
14.2599 14.3969 2.63348 
18.5412 13.0627 1.58939 
18.7319 15.8456 1.32966 
17.0426 14.411 2.8485 
20.0314 14.2539 2.75761 
21.5674 12.9446 1.68502 
21.4014 15.7783 1.6664 
23.1107 14.1765 3.00044 
24.4908 12.9098 1.44466 
24.2976 15.5541 1.59144 
22.8374 14.3834 0.0789791 
28.5789 14.2269 2.75444 
27.2239 12.888 1.49175 
27.1088 15.8453 1.29193 
25.7471 14.491 2.83062 
1.36517 18.7117 1.35796 
2.65041 17.3261 2.7878 
2.90159 20.1839 2.74922 
4.3153 18.7021 1.33929 
7.60324 18.6473 1.48189 
5.86646 17.2595 2.91413 
5.78022 19.9923 2.99136 
5.90305 17.2052 0.23714 
5.86306 19.9203 0.182706 
10.1267 18.6404 1.43531 
8.88193 17.2316 2.9711 
11.6359 17.2121 2.94262 
8.60523 20.2743 2.88993 
11.5263 20.2515 2.8221 
14.3496 20.313 0.131786 
12.9538 18.7578 1.45206 
15.7761 18.7591 1.38386 
14.37 17.2287 2.77179 
14.4824 20.2423 2.87954 
18.7229 18.6261 1.33042 
17.3105 17.1415 2.90513 
20.0352 17.2343 2.88777 
17.3026 20.0168 2.74065 
20.1754 20.3528 2.82966 
17.295 17.2818 0.166491 
20.2302 20.3237 0.0407382 
17.1724 20.1118 0.00974698 
22.8291 20.0347 0.142139 
21.5051 18.4996 1.45392 
24.2148 18.5198 1.36975 
22.9021 17.1912 2.8117 
23.083 20.1374 2.89706 
28.6779 17.0553 2.74941 
28.5536 20.0286 2.76817 
27.1579 18.6956 1.39266 
25.7053 17.1392 2.83661 
25.6883 20.0437 2.86287 
1.32426 21.4164 1.38598 
2.66031 22.9768 2.78519 
1.31943 24.4331 1.39431 
2.8805 23.0025 0.103375 
4.08592 24.3966 1.57812 
4.36657 21.5802 1.38836 
7.09929 21.4334 1.55775 
5.67225 22.9866 2.901 
6.97483 24.2436 1.51664 
10.0391 21.5741 1.52579 
8.55209 22.886 2.75649 
11.4758 22.9375 2.8857 
9.88606 24.5299 1.36863 
8.49036 22.7973 0.0364174 
12.872 21.7901 1.47655 
15.759 21.7184 1.36525 
14.2856 23.0702 2.8559 
12.8199 24.3889 1.36293 
15.7126 24.3789 1.45448 
14.5283 22.9615 0.0491762 
18.5123 21.7389 1.59866 
17.2657 23.216 2.8124 
20.1576 22.8954 2.80177 
18.6699 24.4177 1.44307 
21.6674 21.6591 1.51435 
24.3815 21.463 1.14186 
21.4769 24.3653 1.27105 
23.0366 22.9499 2.84597 
24.3665 24.473 1.36906 
28.672 22.9905 2.93361 
27.204 21.4973 1.40563 
25.7826 22.9845 2.69043 
27.1714 24.4566 1.4941 
28.5844 22.9653 0.0292218 
2.8688 28.5606 2.81537 
1.35044 27.419 1.36237 
2.78698 25.9406 3.00224 
0.0600391 25.8365 0.00603103 
2.64153 25.9356 0.0548281 
0.137047 25.9685 2.89672 
5.62464 28.6213 2.89688 
4.38648 27.1647 1.34386 
7.30447 27.3192 1.53224 
5.6119 25.7568 2.83166 
8.59023 28.6981 0.213951 
11.5867 28.6863 3.03441 
8.63909 28.6366 2.96333 
9.97175 27.1618 1.57349 
8.54139 25.6747 2.77729 
11.3795 25.9326 2.85455 
11.4145 25.8976 0.0930727 
8.55609 25.8756 0.0715126 
12.9304 27.3151 1.59711 
15.7098 27.2661 1.35447 
14.0647 25.8264 3.00103 
14.2331 25.7339 0.0187406 
14.2293 28.6474 0.0644047 
17.1846 28.7119 3.02934 
20.0432 28.7083 2.96868 
18.6941 27.451 1.28819 
17.119 25.7891 2.99533 
20.2142 25.8583 3.02117 
20.081 25.7166 0.0146872 
17.1358 25.8856 0.0922888 
22.9545 28.6586 2.75226 
21.3992 27.3276 1.71404 
23.0522 25.7336 3.09405 
24.45 27.3185 1.44102 
27.2796 27.1775 1.27541 
25.8202 25.7976 2.80784 
25.7615 28.5874 0.0233917 
1.45851 1.37119 4.29201 
1.48544 1.37986 7.10351 
2.90045 2.86924 5.79216 
0.0626056 0.129725 5.86014 
0.0832699 2.94475 5.76151 
4.12511 1.29803 4.30446 
7.08007 1.26374 4.29519 
4.3636 1.53127 7.19062 
7.07048 1.29445 7.23322 
5.60287 2.76875 5.68076 
10.0759 1.30148 4.41879 
10.0116 1.29404 7.08098 
8.46742 2.7041 5.82005 
11.3891 2.79439 5.73648 
13.0839 1.34914 4.45123 
15.8474 1.31736 4.34902 
12.967 1.37094 7.1158 
15.7854 1.59161 7.08953 
14.2671 2.878 5.76691 
18.5746 1.30774 4.48603 
18.7309 1.32177 7.09588 
17.2985 2.88636 5.7915 
20.0713 2.91606 5.56064 
21.604 1.48186 4.34934 
24.354 1.40886 4.43636 
21.5967 1.31875 7.27123 
24.4149 1.29268 7.2366 
22.9998 2.7592 5.92791 
27.359 1.60122 4.28334 
27.4574 1.45239 7.27703 
25.8912 2.69345 5.97159 
1.42114 4.14082 4.36359 
1.30849 7.03009 4.36347 
4.01689 7.2275 4.34455 
1.52706 4.31633 7.21246 
1.12619 7.00366 7.14593 
2.77587 5.76624 5.87099 
7.12871 4.31286 4.21472 
4.24987 4.17865 4.41893 
7.10592 7.37203 4.37209 
4.47124 4.17045 7.19393 
7.06796 4.11701 7.09261 
4.29657 7.08777 7.17895 
5.57089 5.64555 5.7481 
7.21454 7.03505 7.26782 
9.80552 4.12247 4.12445 
10.0499 6.9708 4.37594 
10.0469 4.1265 7.24379 
8.48317 5.6143 5.63489 
9.90253 7.15579 7.00373 
11.3167 5.5004 5.75686 
15.8858 4.26278 4.45374 
12.8682 4.37866 4.3462 
12.8023 7.20315 4.24644 
15.8563 7.36837 4.37502 
12.9884 4.35797 7.21419 
15.7114 4.50118 7.17201 
12.7501 7.22643 7.00213 
14.2384 5.69815 5.68124 
15.658 7.24052 7.12727 
18.5731 4.33177 4.32919 
18.5145 7.21004 4.19317 
18.7709 4.20165 7.19932 
17.2377 5.69962 5.865 
18.5437 7.23038 7.0941 
20.0461 5.86626 5.65096 
24.3966 4.41866 4.48104 
21.5075 7.34516 4.21101 
24.3182 7.23448 4.18537 
24.5351 4.26948 7.12121 
21.5446 4.28954 6.98353 
21.5117 7.12596 7.17348 
23.1376 5.8139 5.57221 
24.1224 7.13043 7.31068 
27.2019 4.18014 4.40172 
27.2974 7.34604 4.41795 
28.5339 5.51582 5.7661 
27.3774 4.28019 7.20117 
25.7063 5.69858 5.69674 
27.3202 7.05635 7.11633 
1.39136 10.0059 4.29132 
1.46935 10.0165 7.05121 
2.60565 8.55079 5.79526 
2.76724 11.5502 5.64669 
0.137925 11.4687 5.83998 
4.16298 9.82135 4.15021 
7.0849 9.99412 4.53688 
4.26108 9.99245 7.15349 
5.46215 8.41375 5.72241 
6.99488 10.0066 7.11192 
5.56787 11.4284 5.67771 
9.97653 10.1169 4.5421 
8.53513 8.66084 5.80294 
9.87993 10.2211 7.24976 
11.2464 8.69863 5.95595 
8.52609 11.4634 5.7032 
11.3022 11.6147 5.81097 
12.7551 10.3258 4.58271 
15.6473 10.2658 4.44128 
12.7241 10.3011 7.20847 
14.182 8.70739 5.77585 
15.8653 10.2705 7.26409 
14.2276 11.7228 5.82194 
18.588 10.0848 4.21379 
17.1384 8.79048 5.75194 
18.6288 10.1473 7.1746 
20.0822 8.82766 5.71307 
17.2281 11.4998 5.69172 
20.1015 11.4544 5.69134 
21.5257 10.1645 4.14137 
24.3599 10.0023 4.36711 
21.6049 10.1302 7.19046 
22.9658 8.73066 5.77934 
22.9123 11.4357 5.80702 
24.4847 10.025 7.10746 
27.3265 10.2522 4.31177 
28.6438 8.6563 5.76308 
25.7544 8.46992 5.92006 
27.238 10.1472 7.04707 
25.7401 11.4285 5.61503 
1.39474 12.8503 4.37718 
1.3705 15.8388 4.42328 
1.4373 12.9619 7.03089 
1.3367 15.6486 7.28767 
2.90391 14.4121 5.63159 
4.20414 15.9562 4.15327 
4.27783 13.0112 4.12263 
7.19931 12.9549 4.40564 
7.07579 15.8385 4.39084 
4.12563 15.6712 7.14374 
4.19811 12.9819 6.96365 
7.13396 13.0744 6.97731 
5.63171 14.3904 5.59734 
7.14513 16.0327 7.21859 
9.85044 12.881 4.30074 
10.025 15.8902 4.37499 
9.89846 13.0106 7.08723 
8.3845 14.6893 5.70536 
9.90872 16.0276 7.13316 
11.1704 14.5176 5.70546 
12.8755 13.2203 4.47713 
15.7228 13.0236 4.42904 
12.9658 15.6161 4.31952 
15.6916 15.8729 4.2355 
12.7531 13.1553 7.26583 
15.8336 13.053 7.30405 
12.7507 15.6866 7.13324 
14.3356 14.3147 6.0915 
15.934 15.8341 7.37033 
18.7057 12.8862 4.27677 
18.5989 15.737 4.3608 
18.6772 13.0698 7.22448 
17.0347 14.4789 5.84578 
18.6384 15.8559 7.13566 
20.0469 14.4264 5.63665 
21.5788 12.8206 4.23622 
21.5215 15.7061 4.35339 
24.5116 12.8576 4.34618 
24.3534 15.7046 4.32497 
21.4781 12.8511 7.0161 
21.5317 15.673 7.14143 
22.992 14.331 5.80389 
24.5461 12.9723 7.24523 
24.3141 15.8467 7.25668 
27.2795 12.8773 4.2584 
27.1573 15.703 4.37867 
28.6597 14.4709 5.81452 
27.3287 13.0055 7.15209 
25.7185 14.4256 5.78346 
27.3357 15.9046 7.26099 
1.42818 18.7345 4.18038 
1.37092 18.646 7.02861 
2.91126 17.301 5.66421 
2.83962 20.0426 5.707 
0.00267392 19.9961 5.54941 
4.16383 18.8082 4.28615 
7.34459 18.5953 4.30054 
4.38144 18.6725 7.24802 
5.68847 17.3256 5.76335 
7.20013 18.5723 7.40548 
5.74799 19.8973 5.60275 
10.1617 18.9087 4.2674 
8.60453 17.3071 5.64982 
10.0327 18.6715 7.05909 
11.5913 17.291 5.66603 
8.5261 20.0311 5.63525 
11.4288 20.0675 6.00211 
12.9892 18.8067 4.23603 
15.8625 18.6439 4.16096 
12.9851 18.6358 7.18268 
14.4273 17.2976 5.73277 
15.8651 18.7111 7.20055 
14.4202 20.0985 5.73633 
18.5735 18.73 4.22681 
17.2443 17.3234 5.81338 
18.7434 18.6915 7.15499 
20.0608 17.1784 5.63327 
17.2224 19.9883 5.5763 
19.9442 20.1181 5.48875 
21.6791 18.5933 4.28449 
24.3872 18.7148 4.22276 
21.2147 18.7499 7.09496 
22.983 17.2128 5.70969 
23.101 20.1101 5.67622 
24.3767 18.4928 7.09433 
27.288 18.645 4.2588 
28.7119 17.2366 5.80396 
25.9134 17.2973 5.57029 
27.1025 18.5571 7.10912 
25.7975 19.9699 5.77001 
1.34796 21.4788 4.27776 
1.45292 24.3455 4.22426 
1.39368 21.3948 7.08776 
2.7838 22.9302 5.58463 
1.51568 24.3701 7.40183 
4.1006 21.3592 7.01122 
0.153463 23.0727 5.77915 
4.33034 21.3546 4.25067 
7.12716 21.5255 4.41747 
7.0348 24.4404 4.27543 
4.23497 24.2707 4.31084 
4.20003 24.3307 7.28293 
7.1837 21.5922 7.12784 
5.61805 22.9309 5.76713 
7.09575 24.5661 7.0379 
10.0891 21.5507 4.21605 
10.0561 24.4259 4.12954 
9.80531 21.7099 7.08339 
8.57994 23.1705 5.56097 
10.102 24.2263 7.22219 
11.5393 22.8236 5.74385 
12.8718 21.5382 4.34487 
15.9837 21.7147 4.37758 
12.8374 24.4087 4.26217 
15.7938 24.3417 4.36194 
13.1502 21.5535 7.31966 
15.7535 21.5884 7.22503 
14.1849 22.9546 5.62287 
15.7887 24.4263 7.20452 
12.9226 24.3488 7.27604 
18.6612 21.73 4.28348 
18.725 24.437 4.38764 
18.4738 21.5828 7.03386 
17.2247 23.2604 5.82608 
20.1769 22.7317 5.62288 
18.6306 24.2332 7.16583 
21.59 21.3568 4.40044 
24.5032 21.5751 4.26208 
21.4452 24.2063 4.28593 
24.4246 24.4484 4.31455 
21.5045 21.4776 7.12772 
21.6126 24.2883 7.33674 
23.0055 22.982 5.75447 
24.3591 24.4294 6.96636 
24.352 21.4303 7.18113 
27.1896 21.5903 4.22335 
27.3542 24.3413 4.16315 
27.4067 21.5042 7.13903 
25.894 22.9928 5.76455 
27.4833 24.3263 7.17698 
1.45885 27.3104 4.4829 
2.88147 28.6083 5.85152 
1.40324 27.2695 7.2479 
2.80375 25.8332 5.98329 
4.1862 27.1556 4.34073 
7.11148 27.1796 4.31688 
4.23765 27.2228 7.41627 
5.63562 28.5277 5.93661 
5.53437 25.7534 5.86759 
6.8236 27.2293 7.25267 
10.041 27.1587 4.29758 
8.53918 28.5839 5.90763 
11.3139 28.4419 5.87554 
8.56739 25.7594 5.6573 
9.9706 27.1282 7.22119 
11.4765 25.6379 5.84522 
12.9245 27.3247 4.3758 
15.7016 27.0468 4.17305 
14.5516 28.5889 5.77436 
13.0271 27.0796 7.1462 
14.2628 25.6736 5.55828 
15.8886 27.2841 7.13582 
18.5461 27.1164 4.36814 
17.3522 28.6866 5.79484 
20.0978 28.532 5.76934 
17.301 25.8274 5.96248 
18.7914 27.2355 7.31386 
20.3295 25.779 5.90424 
21.6124 27.2632 4.41018 
24.4631 27.341 4.27387 
22.9146 28.6238 5.81669 
21.6075 27.1845 7.38054 
22.9991 25.6382 5.63139 
24.4907 27.1504 7.1723 
27.3759 27.1671 4.33108 
28.6798 25.8409 5.64807 
25.8359 28.5864 5.7227 
25.9596 25.6616 5.67899 
27.4133 27.2139 7.26356 
2.84025 2.90044 8.63498 
0.172574 2.87741 8.67563 
1.59392 1.48151 10.3386 
3.00904 2.99275 11.6639 
0.0183169 2.89226 11.5784 
2.91084 0.0860651 11.6101 
0.0267679 0.223164 11.5646 
5.73355 2.87462 8.70729 
5.70732 0.012412 8.56801 
4.48913 1.44524 10.1978 
7.12377 1.37378 10.1412 
6.03103 2.82462 11.5822 
8.53555 2.79407 8.63724 
11.7438 2.70973 8.46036 
11.485 0.0301967 8.55398 
9.97298 1.37131 10.0704 
8.59344 2.86558 11.4928 
11.4475 2.76456 11.5031 
8.65305 0.040558 11.446 
14.5279 2.93349 8.60614 
14.2753 0.00170397 8.69801 
12.881 1.42003 10.1148 
15.7217 1.57315 9.96514 
14.3929 2.80447 11.5135 
17.5194 2.87217 8.49098 
20.2942 2.80254 8.47369 
17.2275 0.0979905 8.71832 
17.4361 0.0434043 11.4481 
18.5795 1.33756 10.0656 
17.1872 2.95204 11.4649 
19.9311 2.88777 11.4358 
23.1119 2.90924 8.5485 
22.9269 0.0377171 8.93899 
23.0402 0.0649475 11.5184 
21.5 1.45092 10.1038 
24.5325 1.39869 9.97615 
23.1129 2.93753 11.5982 
25.8958 2.8451 8.57558 
25.9138 0.0769609 11.4567 
27.4766 1.33878 10.1003 
25.9931 3.08879 11.5053 
2.89145 5.65207 8.67878 
0.0415808 5.6187 8.66917 
1.57628 4.19719 10.2047 
1.56572 7.07908 10.0283 
2.79623 5.95298 11.5022 
0.035868 5.76757 11.4426 
5.57088 5.84778 8.77601 
4.33354 7.39385 10.236 
7.24143 4.31855 10.0183 
4.32396 4.22503 10.0509 
7.16203 7.19205 9.98105 
5.65219 5.8632 11.5672 
8.68889 5.7433 8.39456 
11.6924 5.68324 8.58325 
10.1475 4.10272 9.79247 
10.0151 7.04865 9.90338 
8.58244 5.70838 11.2666 
11.5353 5.75651 11.26 
14.2627 5.72925 8.68832 
15.9342 4.38513 10.1366 
12.9964 4.25937 10.043 
12.9615 7.32285 9.92467 
15.7705 7.42031 9.96078 
14.338 5.63887 11.3666 
17.1662 5.86209 8.53434 
19.9306 5.82887 8.62934 
18.5846 4.33013 9.90596 
18.7348 7.39396 9.99479 
17.3877 5.91773 11.4563 
20.1274 5.61547 11.2194 
22.8771 5.49618 8.65735 
21.5259 4.10713 10.1482 
21.5994 7.08973 9.89333 
23.0115 5.78514 11.4899 
24.2956 7.23761 10.117 
24.5592 4.31089 10.0486 
25.8326 5.84545 8.64744 
27.561 4.23943 10.1389 
27.3411 7.2465 10.0246 
26.003 5.77792 11.3714 
2.93775 8.50581 8.349 
2.85841 11.2217 8.58959 
1.44477 10.0127 10.0743 
2.8962 8.61985 11.4671 
3.0435 11.2264 11.3431 
0.0416917 8.63709 11.5869 
5.58369 8.5656 8.5263 
5.84609 11.5942 8.49409 
4.29629 9.95758 10.0128 
7.11138 10.074 9.97091 
5.81139 8.82862 11.4198 
5.73653 11.5666 11.4465 
8.4965 8.5343 8.45126 
11.384 8.51831 8.55927 
8.39059 11.6044 8.52475 
11.273 11.656 8.5779 
9.92546 10.1095 9.86263 
8.57388 8.6437 11.3812 
11.3537 8.32644 11.4201 
8.55966 11.6117 11.3927 
11.2848 11.5268 11.5227 
14.3499 8.7507 8.4775 
14.2107 11.6676 8.7043 
12.9499 10.1662 10.1071 
15.7944 10.0438 10.0345 
14.293 8.6386 11.4252 
14.3863 11.4293 11.499 
17.0943 8.58668 8.56298 
20.0155 8.80541 8.54364 
17.1737 11.5506 8.70425 
19.9691 11.4439 8.60694 
18.6311 10.0471 10.0669 
17.3024 8.51276 11.5412 
20.3048 8.45949 11.4954 
17.2844 11.3266 11.5566 
20.0189 11.3306 11.5767 
22.7982 8.66422 8.6194 
23.1527 11.4585 8.70452 
21.4495 10.0693 10.0422 
22.9781 8.75841 11.4704 
22.8885 11.5078 11.703 
24.584 10.0599 10.0641 
28.6462 11.2882 8.61993 
28.6941 8.87905 8.61988 
25.928 8.49675 8.69829 
25.9115 11.4031 8.67044 
28.5509 11.3172 11.494 
27.2989 9.89321 10.0248 
25.8513 8.69025 11.4911 
26.0264 11.4625 11.6183 
2.91097 14.2152 8.5196 
0.0820075 14.2334 8.62405 
1.4772 12.7621 9.9562 
1.37333 15.7078 9.99002 
2.88362 14.5039 11.4264 
5.5931 14.2587 8.38554 
4.41051 15.6808 9.9666 
4.20021 12.717 9.85903 
6.98902 13.1738 9.96799 
7.01436 15.7841 10.0212 
5.62606 14.3483 11.3791 
8.57686 14.4698 8.72865 
11.3578 14.529 8.74628 
9.85432 12.923 9.93347 
9.98144 15.9848 9.97749 
8.6878 14.4006 11.5849 
11.3425 14.4542 11.3104 
14.2341 14.4088 8.67565 
12.7633 12.9986 10.1869 
15.7949 13.0211 10.191 
12.918 15.95 10.0331 
15.8641 15.7668 10.0669 
14.3455 14.3185 11.4703 
17.2578 14.2493 8.61966 
20.2537 14.3778 8.61672 
18.6978 12.9123 10.3571 
18.7207 15.6967 10.1412 
17.2661 14.3343 11.7262 
20.2378 14.2544 11.5138 
23.0086 14.3114 8.63184 
21.5098 12.6673 10.0564 
21.6943 15.7064 10.0661 
22.964 14.284 11.6148 
24.4036 15.6679 10.1719 
24.4944 12.9124 10.1382 
25.8073 14.386 8.61687 
28.6281 14.4157 11.4893 
27.3729 12.7142 10.0207 
27.3498 15.8551 9.82419 
26.1244 14.3253 11.55 
2.83846 17.3843 8.66009 
2.74843 20.0061 8.57285 
0.0665602 20.0833 8.5755 
0.0594397 17.1897 8.7421 
1.19159 18.6284 9.98519 
2.72163 17.3142 11.4559 
2.89503 19.9008 11.4397 
5.70368 17.2402 8.59117 
5.70583 20.1913 8.45242 
4.32737 18.6903 9.84097 
7.2505 18.6264 10.042 
5.56999 17.1558 11.5349 
5.66169 20.0241 11.3495 
8.55399 17.1715 8.70649 
11.5477 17.2882 8.58828 
8.6196 20.0771 8.49155 
11.4603 20.0046 8.57144 
9.93399 18.7395 10.1549 
8.43211 17.3505 11.5534 
11.4173 17.4359 11.4588 
8.53116 19.9986 11.6261 
11.4394 19.8753 11.4385 
14.4738 17.209 8.62441 
14.3813 20.0244 8.74316 
13.0653 18.7046 10.1699 
15.9062 18.5439 10.1996 
14.48 17.2116 11.4538 
14.3939 20.0877 11.4725 
17.3311 17.2964 8.56228 
20.0557 17.0683 8.69133 
17.2679 20.0022 8.61753 
20.0285 20.2155 8.55719 
18.7321 18.6571 9.95899 
17.4228 17.1805 11.5224 
20.1379 17.1724 11.5677 
17.2527 20.1049 11.4208 
20.0883 20.053 11.5911 
22.8539 17.0445 8.7393 
22.8929 19.8855 8.4923 
21.4782 18.564 9.94023 
22.9661 17.2004 11.5845 
23.0083 19.8971 11.5316 
24.2329 18.5681 10.0781 
25.7371 17.3103 8.54737 
25.8365 20.0476 8.62922 
28.6896 17.3222 11.4314 
28.6538 19.9155 11.5831 
27.1158 18.776 10.0455 
26.0151 17.1693 11.3074 
25.8527 20.201 11.5299 
2.73643 22.8253 8.59434 
0.100681 22.8768 8.47342 
1.42428 24.3029 10.1093 
1.44596 21.4388 9.98319 
2.8852 22.8939 11.3893 
0.00958903 22.7514 11.3709 
5.52956 22.7348 8.4653 
4.21894 24.1732 9.86315 
7.17301 24.4931 9.90871 
4.21493 21.5558 9.99329 
7.28177 21.5615 9.89292 
5.85075 22.9759 11.3773 
8.46985 23.128 8.4828 
11.3276 22.605 8.58267 
9.90357 24.305 9.98327 
9.94917 21.4764 10.0547 
8.60227 22.9465 11.3952 
11.3907 22.9248 11.395 
14.3171 22.8896 8.79479 
14.5229 22.9847 11.3327 
12.7992 21.4804 10.2042 
15.7486 21.5293 10.0223 
12.906 24.2336 10.1251 
16.0195 24.4175 9.99953 
17.1366 22.8985 8.62821 
20.1584 22.8677 8.44194 
18.5922 24.289 9.93122 
18.4731 21.5415 9.98391 
19.9493 22.9628 11.2483 
17.2195 22.9915 11.6117 
22.9695 22.7779 8.55213 
21.4792 24.4507 10.0607 
22.8567 23.0037 11.3636 
24.5121 24.549 10.106 
21.7098 21.2704 9.92827 
24.3159 21.3676 10.1949 
25.7296 22.748 8.61473 
25.9072 23.1492 11.6868 
27.3567 24.401 10.1353 
27.3204 21.4552 10.0292 
2.85216 28.7108 8.72434 
2.81649 25.8941 8.65637 
0.0317035 25.75 8.68085 
0.107806 28.6852 8.7255 
4.10159 27.3533 10.139 
0.0505892 25.8202 11.5826 
2.93229 25.5913 11.444 
1.50339 27.4143 10.1983 
5.54195 25.7333 8.69338 
5.72541 25.7985 11.3112 
7.21423 27.1852 10.031 
5.71119 28.4836 11.5163 
8.551 28.5316 8.71955 
8.61568 25.812 8.52105 
11.3355 25.7408 8.68819 
11.5916 28.6357 11.5004 
11.4251 25.8189 11.3747 
8.46409 25.774 11.4378 
10.1209 27.1326 10.1737 
14.473 25.6117 8.59373 
14.5766 28.5735 11.4877 
14.4524 25.8178 11.3606 
15.8699 27.3079 9.9508 
12.8296 27.0202 9.79313 
20.1377 28.7114 8.68016 
17.2226 25.8497 8.55226 
20.1131 25.7996 8.67989 
20.1708 28.4893 11.6284 
17.3618 25.8179 11.4505 
18.5806 27.1696 10.0818 
20.0719 25.8451 11.5255 
23.0347 25.7393 8.4778 
21.5968 27.249 10.1681 
24.4377 27.243 10.0773 
22.9647 25.6929 11.506 
25.9892 28.6825 8.72503 
25.8525 25.7452 8.45129 
27.3711 27.2884 10.1734 
25.9378 25.8076 11.5245 
1.47896 1.48764 13.0503 
1.58638 1.30174 15.8463 
2.99261 0.0319876 14.3824 
2.90744 2.79353 14.4065 
0.0845783 2.88093 14.4426 
4.42576 1.35181 12.7305 
7.23805 1.44086 13.0115 
5.66721 2.95835 14.2203 
4.44761 1.65357 15.9989 
7.13645 1.61821 15.6664 
9.98048 1.3563 12.7858 
8.58938 2.99689 14.1706 
11.5112 3.00093 14.0754 
10.0636 1.39208 15.6861 
12.8734 1.34167 12.8967 
15.7958 1.38053 12.8734 
12.9365 1.39061 15.6678 
15.7468 1.54265 15.6228 
14.2575 2.84427 14.4361 
20.1744 0.155378 14.2557 
18.6664 1.47316 12.947 
17.1429 2.92113 14.262 
17.1943 0.161425 14.2481 
18.7394 1.41675 15.7456 
20.1657 3.03399 14.4452 
21.6408 1.33662 12.7993 
24.5968 1.51676 12.8665 
22.9973 2.80586 14.3149 
21.4563 1.52269 15.6811 
24.4598 1.39008 15.8996 
23.2143 0.00641597 14.4215 
27.2892 1.50986 13.0129 
28.6146 0.0703958 14.2673 
27.2336 1.43282 15.6409 
25.7057 2.90102 14.3949 
1.52089 4.35861 12.9964 
1.60093 7.27375 13.0026 
1.53423 4.35953 15.7862 
1.52798 7.16231 15.7582 
3.05604 5.88584 14.3759 
0.144631 5.84137 14.5179 
4.32255 4.48942 12.9124 
4.43691 7.32784 12.8917 
7.09242 4.21782 12.9325 
7.05781 7.33715 12.9746 
5.76949 5.73804 14.2909 
4.12836 4.30827 15.7652 
4.33904 7.38047 15.9624 
6.90346 4.31767 15.5871 
7.11886 7.3094 15.7388 
10.0786 4.3574 12.7549 
9.85253 6.95433 12.8652 
11.5905 5.75388 14.0736 
10.101 4.29177 15.5696 
10.2057 7.14697 15.64 
8.50252 5.71313 14.4152 
15.7189 4.31393 12.8019 
13.0541 4.2768 13.0155 
13.0312 7.10207 12.7949 
15.7606 7.03535 12.8266 
13.023 4.50432 15.6012 
15.9089 4.42283 15.7454 
12.7668 7.21436 15.794 
15.8528 7.20815 15.7605 
14.4224 5.80969 14.4218 
18.6756 4.38035 12.8604 
18.8089 6.97337 12.9043 
18.6661 4.32908 15.8831 
18.3921 7.33336 15.8183 
17.3883 5.66889 14.39 
20.1651 5.73268 14.4616 
21.4662 4.35691 13.0068 
24.5071 4.54196 12.8697 
21.6468 7.04627 12.9289 
24.4735 7.11095 12.8042 
21.5948 4.37982 15.899 
24.2541 4.49073 16.0253 
21.3873 7.05608 15.9064 
24.2698 7.25934 15.9042 
23.1157 5.69161 14.4973 
27.3339 4.53497 13.134 
27.0742 7.32263 13.0161 
27.2718 4.39283 15.725 
27.1645 7.22951 15.9215 
25.8091 5.72894 14.427 
1.42706 10.0223 12.8138 
2.803 11.3358 14.1882 
2.95317 8.74113 14.2351 
1.55844 9.92365 15.828 
0.165878 11.3423 14.5057 
0.118012 8.69525 14.5664 
4.35211 9.92233 12.8394 
7.10682 10.2346 12.6588 
5.76955 8.76039 14.2983 
5.67102 11.5482 14.0596 
4.3718 9.9225 15.7715 
7.15167 10.0915 15.8264 
9.89341 9.91627 12.7022 
11.4668 8.67188 14.2085 
11.5324 11.4683 14.2132 
8.59328 8.72336 14.2787 
8.63027 11.4256 14.215 
10.0262 10.1068 15.7624 
12.766 9.9563 12.7226 
15.7738 9.83832 12.932 
14.5165 11.4607 14.1387 
14.405 8.40389 14.2159 
12.9176 10.0446 15.6975 
15.7217 9.88378 15.5975 
18.8677 9.93834 13.0032 
17.4007 8.54648 14.3199 
20.3668 11.5051 14.3184 
20.3112 8.62679 14.2852 
18.6597 10.2051 15.7445 
17.2738 11.587 14.4203 
21.5106 10.1664 12.8924 
24.4173 10.1357 13.0792 
21.615 10.0268 15.7554 
24.4991 9.8718 15.682 
22.9811 8.54961 14.3572 
22.9988 11.4338 14.3773 
27.2991 10.0467 13.0738 
27.3412 10.0541 15.8633 
25.9313 11.4496 14.555 
25.9141 8.54496 14.3809 
1.35462 12.8491 12.6851 
1.20575 15.8742 12.9631 
3.99972 15.7914 12.9355 
1.41287 12.8904 15.672 
1.46136 15.8363 15.9502 
0.106764 14.3896 14.4766 
4.08855 12.689 15.6574 
2.71432 14.4686 14.4075 
4.31261 12.9813 12.7442 
7.18012 12.9223 12.7996 
7.03832 15.7957 13.0427 
5.69772 14.3541 14.1369 
4.3404 15.6691 15.8801 
7.05114 12.98 15.5947 
7.14166 15.787 15.8076 
10.0347 13.0835 12.8381 
10.0175 15.8888 12.9051 
11.553 14.3328 14.173 
8.50323 14.3304 14.2855 
9.97256 13.0103 15.6498 
10.054 15.8063 15.9024 
12.9098 12.882 13.0576 
15.7059 12.9483 12.9561 
13.0384 15.7364 12.8023 
15.8505 15.8143 12.9655 
12.9031 12.9817 15.7989 
15.9651 13.0824 15.6763 
12.9497 15.6718 15.7036 
15.9472 15.8806 15.6464 
14.4412 14.3129 14.436 
18.79 12.9162 13.0193 
18.7729 15.8143 12.9725 
17.3455 14.4305 14.3092 
18.7635 12.9941 15.992 
18.7869 15.8802 15.9227 
20.1422 14.3614 14.6276 
21.6401 13.0763 13.212 
21.5722 15.6414 12.96 
24.5389 15.8077 12.9741 
23.42 14.495 14.5153 
21.7878 12.9921 15.853 
21.761 15.7162 15.8111 
24.5966 15.7795 15.8905 
24.7468 12.8622 12.882 
27.3599 12.7976 13.058 
27.4246 15.8157 12.9883 
26.046 14.3886 14.2457 
24.6152 12.8607 15.7144 
27.4422 12.8468 15.8276 
27.3026 15.6954 15.8843 
1.3974 18.7066 13.0792 
2.89101 20.2483 14.3111 
1.28706 18.707 15.893 
2.69678 17.1832 14.4752 
0.0722775 17.1377 14.4083 
4.19419 18.61 13.0082 
7.09672 18.7542 12.9352 
5.51755 20.0446 14.3116 
5.57834 17.0027 14.3357 
4.20027 18.6128 15.8531 
7.02722 18.6878 15.8151 
10.0027 18.78 13.0243 
11.6181 17.4235 14.1201 
8.50036 17.2576 14.4001 
10.1524 18.6394 15.777 
11.6078 20.087 14.4345 
8.45249 20.1197 14.5679 
14.5314 20.0165 14.2394 
13.0349 18.555 12.7653 
16.023 18.5403 13.05 
13.0134 18.5565 15.6911 
16.0342 18.7231 15.8454 
14.4035 17.2811 14.3611 
18.6544 18.6756 12.9418 
20.017 20.1204 14.4151 
18.9227 18.6601 15.8953 
20.2385 17.2103 14.3692 
17.3221 17.2866 14.4293 
17.2689 20.0702 14.4748 
21.5908 18.6271 13.1364 
24.3738 18.3724 13.0571 
21.6874 18.6416 15.6879 
24.5251 18.7225 15.9095 
22.9587 17.1346 14.3793 
22.9283 20.1215 14.3721 
26.0257 17.1191 14.2975 
27.2294 18.6719 12.956 
25.8726 20.2242 14.3088 
27.2658 18.6994 15.8749 
28.6244 20.1695 14.3809 
1.53602 21.4177 12.7286 
1.49374 24.3493 12.759 
3.04955 22.946 14.1075 
1.50463 21.5056 15.7238 
1.48498 24.223 15.6843 
4.54339 21.6596 12.771 
7.19325 21.667 12.8446 
4.29597 24.3985 12.6903 
7.18507 24.3948 12.9166 
4.28663 21.5108 15.7263 
7.19553 21.6394 15.8463 
7.33602 24.3085 15.7924 
5.82369 23.1189 14.3833 
4.37518 24.3481 15.7949 
8.67508 23.1255 14.263 
10.2248 24.5815 12.88 
10.1016 21.6795 12.9198 
11.6841 22.8764 14.3608 
10.0924 21.7217 15.8053 
10.2255 24.4335 15.5416 
15.6921 24.557 12.8276 
15.8557 21.5551 12.8206 
13.0629 24.2862 12.8343 
12.8349 21.524 12.7635 
14.3914 22.9742 14.2421 
13.0087 21.5423 15.7512 
15.7729 21.6774 15.6741 
15.6654 24.4304 15.7643 
13.0987 24.3825 15.6222 
19.9354 23.1894 14.1949 
18.6511 21.7349 12.8623 
17.1247 23.2413 14.2823 
18.6821 21.5325 15.7544 
18.5778 24.5309 15.7047 
24.3994 21.5253 13.0472 
21.5023 21.5577 12.7868 
24.3322 24.3906 12.7289 
21.5182 24.421 12.7834 
22.9078 22.8933 14.3124 
21.4632 21.7375 15.7577 
21.416 24.2652 15.7785 
24.1989 24.3379 15.6099 
24.3508 21.4824 15.8711 
27.349 24.4459 12.918 
27.2067 21.5924 12.9391 
27.1469 21.6246 15.7886 
27.29 24.4671 15.6904 
25.7581 22.9359 14.3675 
28.6637 22.8373 14.3672 
2.89019 25.6733 14.3027 
1.58881 27.1802 12.8383 
0.166738 25.6877 14.2423 
1.48221 27.3865 15.7181 
7.15275 27.3191 12.8265 
5.96402 25.9532 14.2522 
4.17489 27.1105 12.8517 
5.84543 28.6077 14.2367 
4.33982 27.0662 15.7196 
7.24857 27.0957 15.7237 
9.80294 27.2316 12.7056 
8.77587 25.8879 14.2442 
11.696 25.832 14.1061 
8.60597 28.6218 14.1976 
10.0763 27.2044 15.6344 
11.4653 28.6651 14.3823 
14.4361 25.9074 14.3395 
15.8869 27.236 12.697 
14.3286 28.6822 14.3466 
13.064 27.1534 12.7322 
12.8798 27.1462 15.6563 
15.9074 27.603 15.6498 
18.6179 27.3814 12.9788 
18.5717 24.6111 12.8597 
18.7413 27.3665 15.7983 
17.0008 26.0811 14.4594 
20.0182 25.95 14.424 
22.8964 25.7841 14.2657 
24.2637 27.2471 12.8473 
21.6673 27.2167 12.8994 
21.4564 27.3223 15.7472 
24.4199 27.1934 15.8578 
25.6751 25.6697 14.2948 
27.3842 27.2885 12.9422 
25.8143 28.6076 14.365 
27.3581 27.2905 15.831 
1.2875 1.22985 18.6468 
2.73951 2.82423 17.4733 
2.8933 2.79088 20.2058 
2.85119 0.000910573 19.9733 
4.31617 1.20371 18.6188 
7.25029 1.27882 18.6344 
5.8278 2.94828 17.4294 
5.64501 2.77889 20.1952 
10.18 1.55007 18.6254 
8.70097 2.92184 17.0335 
11.4178 2.93642 16.9915 
8.64607 2.80368 19.9875 
11.4269 2.93529 20.3165 
12.9109 1.38481 18.627 
15.8682 1.43697 18.5489 
14.4354 2.9285 17.0971 
12.9887 3.88927 18.6211 
14.5646 2.66298 20.0206 
14.2444 0.0759033 20.0765 
18.672 1.68034 18.7907 
17.2951 3.06439 17.1952 
20.1675 2.80761 17.3677 
17.329 0.225252 17.0574 
20.2347 0.103492 17.1115 
17.2225 2.94896 20.0164 
20.0793 3.04037 20.2653 
20.1152 0.0710198 19.9857 
17.2102 0.100734 20.1855 
21.5388 1.54969 18.594 
23.0635 2.80743 17.333 
24.3103 1.24777 18.7858 
23.072 2.89674 20.1417 
28.6263 2.85487 17.1054 
27.3416 1.46174 18.5082 
25.663 2.89142 17.2501 
28.5585 2.77708 20.1956 
28.6455 0.0741955 20.218 
25.8504 2.81279 20.0064 
25.7629 0.0617434 19.955 
1.32521 4.42531 18.7448 
1.45944 7.1976 18.6518 