ITEM: TIMESTEP
43042
ITEM: NUMBER OF ATOMS
18
ITEM: BOX BOUNDS pp pp pp
0.0000000000000000e+00 2.8712000000000000e+01
0.0000000000000000e+00 2.8712000000000000e+01
0.0000000000000000e+00 2.8712000000000000e+01
ITEM: ATOMS x y z c_cna 
24.4057 10.0518 1.53268 5 
25.9871 8.21433 0.144449 5 
27.2213 10.0519 1.37875 5 
25.987 11.8894 0.144471 5 
21.5805 10.0517 24.4502 5 
24.3963 10.0517 24.2961 5 
24.401 7.21768 27.2704 5 
22.8148 8.2141 25.6843 5 
23.0022 8.62945 28.6691 5 
23.6518 10.0518 26.5215 5 
21.4265 10.0518 27.2659 5 
22.8148 11.8895 25.6843 5 
23.0022 11.4743 28.6692 5 
25.1503 10.0518 28.0194 5 
25.7998 8.6294 25.8716 5 
27.3754 10.0518 27.275 5 
25.7997 11.4742 25.8716 5 
24.4009 12.8859 27.2704 5 
ITEM: TIMESTEP
43043
ITEM: NUMBER OF ATOMS
18
ITEM: BOX BOUNDS pp pp pp
0.0000000000000000e+00 2.8712000000000000e+01
0.0000000000000000e+00 2.8712000000000000e+01
0.0000000000000000e+00 2.8712000000000000e+01
ITEM: ATOMS x y z c_cna 
24.4057 10.0518 1.53268 5 
25.9871 8.21433 0.144449 5 
27.2213 10.0519 1.37875 5 
25.987 11.8894 0.144471 5 
21.5805 10.0517 24.4502 5 
24.3963 10.0517 24.2961 5 
24.401 7.21768 27.2704 5 
22.8148 8.2141 25.6843 5 
23.0022 8.62945 28.6691 5 
23.6518 10.0518 26.5215 5 
21.4265 10.0518 27.2659 5 
22.8148 11.8895 25.6843 5 
23.0022 11.4743 28.6692 5 
25.1503 10.0518 28.0194 5 
25.7998 8.6294 25.8716 5 
27.3754 10.0518 27.275 5 
25.7997 11.4742 25.8716 5 
24.4009 12.8859 27.2704 5 
