ITEM: TIMESTEP
43042
ITEM: NUMBER OF ATOMS
2001
ITEM: BOX BOUNDS pp pp pp
0.0000000000000000e+00 2.8712000000000000e+01
0.0000000000000000e+00 2.8712000000000000e+01
0.0000000000000000e+00 2.8712000000000000e+01
ITEM: ATOMS x y z c_cna 
1.43774 1.43084 1.43246 3 
2.87729 2.86317 2.87133 3 
0.00593136 2.8605 2.8752 3 
4.30833 1.43251 1.43127 3 
7.17636 1.4359 1.43057 3 
5.74268 2.86986 2.86797 3 
10.0452 1.43726 1.43037 3 
8.61077 2.8727 2.86642 3 
11.4802 2.87331 2.8661 3 
11.4801 0.00161996 2.86635 3 
8.611 0.00115037 2.86642 3 
12.9145 1.43672 1.43073 3 
15.7835 1.43438 1.43181 3 
14.3496 2.87211 2.86684 3 
14.3496 0.00065031 2.86681 3 
18.6549 1.433 1.43205 3 
17.2186 2.86891 2.86891 3 
20.092 2.86833 2.86716 3 
21.5285 1.43353 1.43072 3 
24.4012 1.43381 1.43201 3 
22.9623 2.86541 2.87034 3 
27.276 1.43263 1.4333 3 
25.8386 2.86392 2.87258 3 
1.44798 4.29122 1.43655 3 
1.44529 7.16401 1.44559 3 
2.87774 5.73503 2.87579 3 
0.0369777 5.70118 2.90632 3 
4.30852 4.30343 1.43269 3 
7.17557 4.30777 1.43083 3 
4.30531 7.177 1.43354 3 
7.17435 7.17988 1.43069 3 
5.74124 5.74248 2.86828 3 
10.0452 4.30905 1.43016 3 
10.0452 7.18071 1.42972 3 
8.61023 5.7446 2.86609 3 
11.4806 5.74517 2.86544 3 
15.7839 4.30633 1.43183 3 
12.9152 4.30874 1.43031 3 
12.9162 7.18081 1.42931 3 
15.7865 7.18012 1.42977 3 
14.3509 5.74474 2.86579 3 
18.6503 4.29964 1.43667 3 
18.6534 7.17604 1.43419 3 
17.2201 5.74255 2.86777 3 
20.0942 5.74144 2.86505 3 
20.0762 5.72417 0.00880857 3 
24.3987 4.29746 1.43841 3 
21.5291 4.30154 1.43016 3 
21.5372 7.17857 1.42211 3 
22.9506 5.72411 2.88298 3 
24.3688 7.1351 1.4801 3 
27.286 4.29196 1.44327 3 
27.3706 7.0767 1.52792 3 
25.8384 5.71286 2.89224 3 
25.847 5.70921 0.00433231 3 
1.42955 10.0519 1.43033 3 
2.87033 8.61625 2.86882 3 
2.87024 11.4876 2.86882 3 
0.00160976 11.4773 2.87117 3 
0.00170035 8.62646 2.87116 3 
0.00639365 11.5186 0.0167993 3 
0.00647934 8.5852 0.0168359 3 
4.30289 10.052 1.43135 3 
7.17382 10.0521 1.43021 3 
5.73949 8.61597 2.8667 3 
5.73945 11.4881 2.86671 3 
10.0452 10.0521 1.42943 3 
8.60984 8.61636 2.86549 3 
11.4809 8.61656 2.86485 3 
8.60988 11.4878 2.86549 3 
11.4809 11.4876 2.86488 3 
12.9167 10.052 1.42879 3 
15.7878 10.052 1.42855 3 
14.3519 8.61653 2.86477 3 
14.352 11.4875 2.86482 3 
18.6572 10.0519 1.4303 3 
17.2226 8.61621 2.86549 3 
20.0991 8.61655 2.86031 3 
17.2227 11.4876 2.86556 3 
20.0991 11.4871 2.86037 3 
20.0824 8.60666 0.00372143 3 
20.0825 11.4971 0.00376852 3 
21.5469 10.0518 1.41251 3 
22.9558 8.6066 2.87685 3 
22.9558 11.497 2.87692 3 
24.4057 10.0518 1.53268 5 
25.9871 8.21433 0.144449 5 
27.2213 10.0519 1.37875 5 
25.8594 8.58513 2.87585 3 
25.8593 11.5185 2.8759 3 
25.987 11.8894 0.144471 5 
1.44509 12.9398 1.44558 3 
1.44772 15.8125 1.43658 3 
2.8775 14.3688 2.87583 3 
0.0367494 14.4025 2.90641 3 
4.30828 15.8003 1.43268 3 
4.30517 12.927 1.43352 3 
7.17432 12.9242 1.43068 3 
7.17552 15.7961 1.4308 3 
5.74112 14.3614 2.8683 3 
10.0452 12.9234 1.4297 3 
10.0453 15.7948 1.43016 3 
8.61026 14.3594 2.8661 3 
11.4808 14.3588 2.86552 3 
12.9164 12.9232 1.42932 3 
15.7866 12.9238 1.42984 3 
12.9154 15.7951 1.43035 3 
15.7841 15.7975 1.43194 3 
14.3511 14.3592 2.86595 3 
18.6535 12.9278 1.43429 3 
18.6505 15.8042 1.43685 3 
17.2203 14.3613 2.86796 3 
20.0943 14.3623 2.86526 3 
20.0763 14.3796 0.00891743 3 
21.5372 12.9251 1.42224 3 
21.5291 15.8022 1.43037 3 
22.9506 14.3795 2.88318 3 
24.3688 12.9686 1.48019 3 
24.3986 15.8063 1.43859 3 
27.3704 13.027 1.52794 3 
27.2858 15.8117 1.44336 3 
25.8382 14.3908 2.89238 3 
25.8469 14.3945 0.00437557 3 
1.43749 18.6728 1.43252 3 
2.87701 17.2405 2.8714 3 
2.87167 20.1059 2.86817 3 
0.00566362 17.2432 2.87533 3 
4.30811 18.671 1.43128 3 
7.1763 18.6676 1.43058 3 
5.74251 17.2338 2.86801 3 
5.74203 20.1043 2.86715 3 
10.0454 18.6662 1.43039 3 
8.61082 17.231 2.8665 3 
11.4804 17.2304 2.86624 3 
8.61103 20.1022 2.8665 3 
11.4803 20.1018 2.86649 3 
12.9147 18.6669 1.43081 3 
15.7838 18.6693 1.43195 3 
14.3499 17.2316 2.86708 3 
14.3498 20.1029 2.86703 3 
18.655 18.6707 1.43228 3 
17.2188 17.2348 2.86917 3 
20.0922 17.2354 2.86742 3 
17.2206 20.104 2.86731 3 
20.0927 20.1043 2.86681 3 
21.5286 18.6702 1.43094 3 
24.4012 18.6699 1.43218 3 
22.9624 17.2383 2.87061 3 
22.9647 20.1045 2.86735 3 
28.7112 20.1056 2.8688 3 
27.2759 18.6711 1.43341 3 
25.8385 17.2398 2.87279 3 
25.8376 20.1046 2.86808 3 
1.43401 21.5392 1.43107 3 
2.86957 22.9735 2.86697 3 
1.43323 24.4078 1.43067 3 
4.30493 24.4077 1.43049 3 
4.30574 21.5391 1.43067 3 
7.17605 21.538 1.43038 3 
5.74082 22.9732 2.86664 3 
7.17568 24.4076 1.43032 3 
10.0454 21.5372 1.4304 3 
8.61087 22.9726 2.86639 3 
11.4803 22.9725 2.86639 3 
10.0454 24.4076 1.43035 3 
12.9148 21.5377 1.43066 3 
15.7852 21.5385 1.43085 3 
14.3504 22.9728 2.86649 3 
12.915 24.4076 1.43048 3 
15.7857 24.4077 1.43043 3 
18.6569 21.5388 1.43063 3 
17.2215 22.9732 2.86637 3 
20.0933 22.9733 2.86615 3 
18.6573 24.4078 1.43019 3 
21.5291 21.5386 1.43033 3 
24.4013 21.5383 1.43066 3 
21.5293 24.4079 1.43004 3 
22.9652 22.9732 2.8663 3 
24.4012 24.4079 1.43028 3 
28.7095 22.9734 2.86702 3 
27.2736 21.5385 1.43111 3 
25.8373 22.9732 2.86666 3 
27.2732 24.4078 1.43059 3 
2.8719 28.7096 2.86808 3 
1.43417 27.2764 1.43102 3 
2.86964 25.842 2.86693 3 
5.74215 28.7112 2.8671 3 
4.30587 27.2763 1.43065 3 
7.17609 27.2772 1.43038 3 
5.74088 25.8421 2.8666 3 
10.0453 27.278 1.43036 3 
8.61086 25.8426 2.86636 3 
11.4803 25.8428 2.86633 3 
12.9147 27.2777 1.43061 3 
15.7851 27.277 1.43075 3 
14.3503 25.8426 2.8664 3 
20.0926 28.7114 2.86657 3 
17.2204 28.7116 2.86706 3 
18.6568 27.2769 1.43048 3 
17.2214 25.8425 2.86626 3 
20.0932 25.8425 2.86605 3 
22.9647 28.7113 2.86711 3 
21.529 27.2772 1.43017 3 
22.9652 25.8426 2.8662 3 
24.4012 27.2775 1.43055 3 
25.8377 28.7111 2.86791 3 
28.7096 25.8423 2.86697 3 
28.7113 28.71 2.86867 3 
27.2737 27.2772 1.43104 3 
25.8373 25.8426 2.8666 3 
1.43858 1.42959 4.30789 3 
1.43606 1.43211 7.17856 3 
2.87719 2.8639 5.74657 3 
0.00197317 2.86316 5.74661 3 
4.30917 1.43205 4.30543 3 
7.17692 1.43582 4.3031 3 
4.30846 1.43326 7.17787 3 
7.17694 1.4364 7.17499 3 
5.74313 2.87027 5.74091 3 
10.0457 1.43746 4.30207 3 
10.0459 1.43788 7.17338 3 
8.6112 2.87296 5.7382 3 
11.4806 2.87373 5.73731 3 
8.61134 0.00135095 5.73835 3 
11.4805 0.00202325 5.73774 3 
12.9151 1.4373 4.30211 3 
15.7848 1.43577 4.30297 3 
12.9156 1.43802 7.1729 3 
15.786 1.43739 7.17297 3 
14.3506 2.87322 5.73745 3 
14.3503 0.00152773 5.73786 3 
18.6564 1.43482 4.30268 3 
18.6561 1.43584 7.17421 3 
17.2213 2.87207 5.73773 3 
20.0903 2.86891 5.74049 3 
17.2212 0.000803879 5.7379 3 
21.5272 1.43305 4.30424 3 
24.4003 1.43218 4.30552 3 
21.5275 1.43447 7.17552 3 
24.4002 1.4335 7.17661 3 
22.9623 2.86661 5.74274 3 
27.2752 1.43088 4.30702 3 
27.2739 1.43262 7.17772 3 
25.8371 2.86485 5.74457 3 
1.45079 4.28932 4.32015 3 
1.44025 7.18004 4.30968 3 
1.43827 4.30323 7.17946 3 
1.43525 7.17958 7.17614 3 
2.87408 5.74216 5.74352 3 
0.00637892 5.73492 5.74712 3 
4.30664 7.17971 4.30474 3 
7.17637 4.30782 4.30318 3 
4.31004 4.30327 4.30767 3 
7.17536 7.18041 4.30218 3 
4.30763 4.307 7.17706 3 
7.17635 4.30882 7.1744 3 
4.3065 7.18015 7.17602 3 
5.74164 5.74402 5.73966 3 
7.17586 7.18073 7.17383 3 
10.0456 4.30928 4.30164 3 
10.0455 7.18092 4.30101 3 
10.0458 4.30965 7.17286 3 
8.61073 5.74502 5.73754 3 
10.0458 7.18105 7.17243 3 
11.4808 5.74543 5.73669 3 
15.787 7.18073 4.30102 3 
15.7855 4.30811 4.30238 3 
12.9156 4.30932 4.30148 3 
12.9162 7.18103 4.30072 3 
12.916 4.30977 7.17229 3 
15.7868 4.30937 7.1722 3 
12.9164 7.18112 7.17183 3 
14.3514 5.74527 5.73661 3 
15.7876 7.18098 7.17145 3 
18.657 4.30656 4.30217 3 
18.6596 7.18024 4.29961 3 
18.6567 4.30805 7.17347 3 
17.2227 5.74469 5.73637 3 
18.6582 7.18056 7.17209 3 
20.0915 5.74245 5.73901 3 
21.5275 4.30624 7.17511 3 
21.5227 4.2996 4.30882 3 
24.3973 4.29542 4.31308 3 
21.5252 7.17593 4.30579 3 
24.4014 7.17084 4.30915 3 
24.4005 4.30469 7.17632 3 
21.5297 7.17987 7.17261 3 
22.963 5.73954 5.74147 3 
24.4023 7.17811 7.17294 3 
27.2792 4.29117 4.31725 3 
27.2882 7.16391 4.31465 3 
27.2753 4.30332 7.1779 3 
25.8392 5.73645 5.74347 3 
27.2761 7.17674 7.17478 3 
1.43895 10.0519 4.30851 3 
1.43422 10.0518 7.17547 3 
2.87243 8.61595 5.74198 3 
2.87234 11.4879 5.74201 3 
4.30587 10.052 4.30384 3 
7.17504 10.0521 4.30174 3 
4.30609 10.0519 7.17571 3 
5.74092 8.61623 5.73886 3 
7.17567 10.052 7.17364 3 
5.74086 11.4878 5.73888 3 
10.0455 10.0521 4.30076 3 
8.61049 8.6165 5.73708 3 
10.0458 10.052 7.17231 3 
11.481 8.61661 5.7363 3 
8.61049 11.4876 5.73712 3 
11.481 11.4875 5.73636 3 
12.9164 10.052 4.30045 3 
15.7876 10.0519 4.30052 3 
12.9166 10.052 7.17174 3 
14.352 8.61654 5.7361 3 
15.788 10.0519 7.17125 3 
14.3521 11.4874 5.7362 3 
18.6609 10.0518 4.29846 3 
17.2239 8.61641 5.73531 3 
18.6589 10.0518 7.17166 3 
20.0939 8.61607 5.73662 3 
17.224 11.4873 5.73542 3 
20.094 11.4875 5.73672 3 
21.5292 10.0518 4.30213 3 
24.4105 10.0518 4.30234 3 
21.531 10.0517 7.17145 3 
22.9672 8.61527 5.73652 3 
22.9672 11.4882 5.73659 3 
24.4043 10.0517 7.17039 3 
28.7112 11.4875 5.73987 3 
27.2728 10.0518 4.29906 3 
28.7113 8.61609 5.73983 3 
25.8419 8.61132 5.73711 3 
27.2737 10.0517 7.17247 3 
25.8418 11.4921 5.73716 3 
1.44006 12.9237 4.30973 3 
1.4505 15.8144 4.32028 3 
1.43505 12.924 7.1762 3 
1.43796 15.8004 7.17962 3 
2.87381 14.3616 5.74359 3 
0.00613198 14.3687 5.74726 3 
4.30979 15.8005 4.30774 3 
4.30648 12.9242 4.30477 3 
7.17531 12.9236 4.30221 3 
7.17628 15.796 4.30325 3 
4.30735 15.7967 7.17718 3 
4.30633 12.9237 7.17607 3 
7.17577 12.9232 7.17389 3 
5.74149 14.3599 5.73972 3 
7.17619 15.795 7.17454 3 
10.0456 12.9232 4.30109 3 
10.0457 15.7946 4.30179 3 
10.0458 12.9229 7.17256 3 
8.61073 14.3589 5.73765 3 
10.0459 15.7941 7.1731 3 
11.4809 14.3585 5.73689 3 
12.9163 12.923 4.30084 3 
15.7872 12.9232 4.30118 3 
12.9158 15.7945 4.30173 3 
15.7858 15.7957 4.30267 3 
12.9165 12.9228 7.17202 3 
15.7878 12.9227 7.17165 3 
12.9162 15.794 7.17261 3 
14.3516 14.3586 5.73689 3 
15.7871 15.7943 7.17257 3 
18.6597 12.9235 4.29978 3 
18.6571 15.7972 4.30246 3 
18.6584 12.923 7.17228 3 
17.2229 14.359 5.73664 3 
18.657 15.7956 7.1738 3 
20.0916 14.3612 5.73926 3 
21.5253 12.9277 4.30594 3 
21.5227 15.8041 4.30907 3 
24.4014 12.9327 4.30928 3 
24.3972 15.8082 4.31331 3 
21.5297 12.9236 7.17278 3 
21.5276 15.7974 7.17539 3 
22.963 14.364 5.74169 3 
24.4022 12.9253 7.17307 3 
24.4004 15.7989 7.17654 3 
27.288 12.9397 4.31475 3 
27.279 15.8125 4.31745 3 
27.2759 12.9267 7.17487 3 
25.8391 14.3671 5.74364 3 
27.275 15.8002 7.17808 3 
1.4383 18.674 4.30806 3 
1.43575 18.6715 7.17876 3 
2.87688 17.2398 5.74672 3 
2.87177 20.1061 5.74157 3 
0.00169747 17.2405 5.74681 3 
4.30892 18.6715 4.30552 3 
7.17683 18.6677 4.30323 3 
4.30818 18.6704 7.17801 3 
5.74291 17.2334 5.74103 3 
7.17679 18.6672 7.17517 3 
5.74229 20.1042 5.73995 3 
10.0458 18.6661 4.30227 3 
8.61117 17.2307 5.73838 3 
10.046 18.6657 7.17365 3 
11.4808 17.23 5.73758 3 
8.61133 20.1021 5.73851 3 
11.4807 20.1015 5.73799 3 
12.9153 18.6663 4.30239 3 
15.7851 18.6679 4.30327 3 
12.9158 18.6656 7.17324 3 
14.3509 17.2305 5.73783 3 
15.7863 18.6663 7.17334 3 
14.3505 20.1021 5.73818 3 
18.6566 18.6689 4.30301 3 
17.2215 17.2317 5.73809 3 
18.6563 18.6679 7.17456 3 
20.0904 17.2348 5.74082 3 
17.2214 20.1029 5.7382 3 
20.0923 20.1041 5.739 3 
21.5273 18.6707 4.30453 3 
24.4003 18.6716 4.30577 3 
21.5276 18.6693 7.17582 3 
22.9623 17.2371 5.74302 3 
22.9642 20.1048 5.7398 3 
24.4001 18.6703 7.17687 3 
27.2749 18.6728 4.30724 3 
28.7105 20.106 5.74147 3 
25.837 17.2388 5.74484 3 
27.2737 18.6711 7.17795 3 
25.837 20.1053 5.74063 3 
1.43436 21.5397 4.30405 3 
1.43351 24.4078 4.30304 3 
1.43387 21.5395 7.17595 3 
2.86972 22.9736 5.73939 3 
1.43336 24.4079 7.17492 3 
4.30618 21.5393 4.30356 3 
7.17643 21.5381 4.30279 3 
7.17606 24.4076 4.30254 3 
4.30531 24.4077 4.30291 3 
4.3053 24.4077 7.17491 3 
4.30602 21.5391 7.17578 3 
7.17646 21.5379 7.17473 3 
5.74107 22.9732 5.73895 3 
7.17612 24.4077 7.17437 3 
10.0458 21.5372 4.30235 3 
10.0457 24.4076 4.30225 3 
10.0459 21.537 7.17381 3 
8.61113 22.9726 5.73833 3 
10.0459 24.4077 7.17372 3 
11.4807 22.9724 5.73798 3 
12.9153 21.5374 4.30238 3 
15.7857 21.5381 4.30249 3 
12.9154 24.4077 4.30218 3 
15.786 24.4078 4.30208 3 
12.9157 21.5369 7.17343 3 
15.7862 21.5374 7.17337 3 
14.3507 22.9726 5.73786 3 
15.7862 24.4079 7.17318 3 
12.9157 24.4078 7.17333 3 
18.6572 21.5385 4.30234 3 
18.6574 24.4079 4.30193 3 
18.657 21.5382 7.17379 3 
17.2217 22.973 5.73779 3 
20.0931 22.9733 5.73797 3 
18.6573 24.408 7.17334 3 
21.5289 21.5389 4.30263 3 
24.401 21.539 4.30308 3 
21.5292 24.4079 4.30202 3 
24.4011 24.4079 4.30234 3 
21.5286 21.5387 7.17431 3 
21.5289 24.408 7.17367 3 
22.9649 22.9734 5.73831 3 
24.4008 24.408 7.17408 3 
24.4007 21.539 7.17489 3 
27.2736 21.5392 4.30368 3 
27.2733 24.4079 4.30274 3 
28.7094 22.9736 5.73923 3 
27.2732 21.5393 7.1755 3 
25.837 22.9735 5.73877 3 
27.273 24.408 7.17454 3 
1.43454 27.2759 4.30393 3 
2.87202 28.7095 5.74141 3 
1.43405 27.2763 7.1758 3 
2.86983 25.8419 5.73933 3 
4.30634 27.2761 4.30347 3 
4.3062 27.2764 7.17567 3 
7.1765 27.2772 4.30268 3 
5.74246 28.7113 5.73982 3 
5.74113 25.8421 5.73889 3 
7.17655 27.2775 7.17459 3 
10.0457 27.2781 4.3022 3 
8.61114 25.8427 5.73826 3 
10.0459 27.2785 7.17363 3 
11.4806 25.843 5.73788 3 
12.9152 27.2781 4.3022 3 
15.7856 27.2775 4.30229 3 
12.9156 27.2786 7.17323 3 
14.3507 25.8429 5.73775 3 
15.786 27.2783 7.17315 3 
18.6571 27.2772 4.30214 3 
20.0921 28.7117 5.73873 3 
17.2216 25.8428 5.73767 3 
18.6569 27.2777 7.17357 3 
20.093 25.8426 5.73787 3 
22.9642 28.7111 5.73953 3 
21.5288 27.277 4.30244 3 
24.401 27.2769 4.30292 3 
21.5285 27.2772 7.17412 3 
22.9649 25.8425 5.7382 3 
24.4007 27.2769 7.17473 3 
28.7107 28.7097 5.74126 3 
25.8371 28.7105 5.7404 3 
27.2737 27.2765 4.30353 3 
28.7095 25.8421 5.73914 3 
25.8371 25.8424 5.73865 3 
27.2733 27.2766 7.17532 3 
2.87152 2.87026 8.61259 3 
1.43376 1.43592 10.0465 3 
2.8689 2.873 11.4808 3 
2.86904 0.00152574 11.481 3 
5.74159 2.8724 8.61098 3 
5.74178 0.000327292 8.61119 3 
4.30565 1.43645 10.0464 3 
7.17591 1.43772 10.0453 3 
5.73991 2.87372 11.4805 3 
5.74026 0.00199409 11.4807 3 
8.61101 2.8737 8.60919 3 
11.4808 2.87417 8.60812 3 
8.61119 0.00191477 8.60958 3 
10.0457 1.43845 10.0441 3 
8.61027 2.87424 11.4796 3 
11.4804 2.87442 11.4787 3 
8.6104 0.00266835 11.4798 3 
11.4807 0.0025527 8.60858 3 
11.4803 0.00291393 11.4789 3 
14.3511 2.87402 8.60777 3 
12.9157 1.43854 10.0433 3 
15.7861 1.43812 10.0433 3 
14.3508 2.87422 11.4782 3 
14.3508 0.0023924 8.60825 3 
14.3504 0.00267002 11.4784 3 
17.2215 2.87323 8.60832 3 
20.0923 2.87212 8.60937 3 
20.0923 0.000835767 8.60952 3 
17.2213 0.00225487 11.4786 3 
20.0928 0.00189253 11.4791 3 
18.6569 1.43743 10.0439 3 
17.2217 2.87376 11.4783 3 
20.0931 2.87332 11.4788 3 
17.2212 0.00162754 8.60874 3 
22.9642 2.87117 8.61024 3 
22.9643 0.000242586 8.61026 3 
22.9647 0.00164312 11.4796 3 
21.5285 1.43683 10.0446 3 
24.4006 1.43636 10.0453 3 
22.9648 2.87297 11.4793 3 
28.7106 2.86985 8.61215 3 
28.709 2.8727 11.4804 3 
25.8371 2.87038 8.61114 3 
27.2732 1.43601 10.0459 3 
25.8369 2.87276 11.4799 3 
25.8368 0.00147022 11.4802 3 
28.709 0.00137929 11.4807 3 
2.87021 5.74394 8.61116 3 
1.43376 4.30774 10.0459 3 
1.43268 7.18018 10.045 3 
2.86815 5.74491 11.4803 3 
5.74092 5.74475 8.61038 3 
4.30436 7.18063 10.0454 3 
7.17557 4.30951 10.0449 3 
4.30502 4.30878 10.0458 3 
7.17526 7.18093 10.0447 3 
5.73944 5.74531 11.4802 3 
8.61078 5.74535 8.60877 3 
11.481 5.74559 8.60773 3 
10.0457 4.30995 10.0437 3 
10.0456 7.18112 10.0435 3 
8.61013 5.74557 11.4795 3 
11.4806 5.74565 11.4785 3 
14.3517 5.74552 8.60724 3 
15.7867 4.30974 10.0429 3 
12.916 4.31001 10.0429 3 
12.9163 7.18112 10.0427 3 
15.7873 7.18098 10.0426 3 
14.3513 5.74552 11.478 3 
17.2225 5.74515 8.60755 3 
20.0935 5.74453 8.60813 3 
18.6576 4.30923 10.0434 3 
18.6585 7.18075 10.0428 3 
17.2224 5.74524 11.4781 3 
20.0938 5.7449 11.4784 3 
22.9652 5.74357 8.60854 3 
21.529 4.30861 10.0438 3 
21.5301 7.18045 10.0428 3 
22.9653 5.74455 11.4787 3 
24.4016 7.17984 10.0431 3 
24.401 4.30802 10.0444 3 
28.7108 5.74229 8.61076 3 
25.8378 5.74256 8.6093 3 
28.7086 5.74439 11.4799 3 
27.2733 4.30762 10.0451 3 
27.2731 7.17954 10.0439 3 
25.8369 5.7443 11.4792 3 
2.86931 8.6161 8.61052 3 
2.8692 11.4876 8.61054 3 
1.43211 10.0518 10.0447 3 
2.86756 8.61627 11.4801 3 
2.86744 11.4873 11.4801 3 
5.74051 8.61635 8.61006 3 
5.74044 11.4876 8.6101 3 
4.30403 10.0519 10.0453 3 
7.17512 10.052 10.0447 3 
5.73911 8.61645 11.4801 3 
5.73902 11.4874 11.4802 3 
8.61063 8.61654 8.60857 3 
11.4811 8.61659 8.60755 3 
8.6106 11.4875 8.60864 3 
11.4811 11.4874 8.60763 3 
10.0456 10.052 10.0435 3 
8.61004 8.61654 11.4794 3 
11.4807 8.61655 11.4785 3 
8.60999 11.4873 11.4795 3 
11.4807 11.4873 11.4786 3 
14.3521 8.61652 8.60702 3 
14.3522 11.4872 8.60713 3 
12.9165 10.0519 10.0428 3 
15.7876 10.0518 10.0426 3 
14.3517 8.61645 11.478 3 
14.3517 11.4872 11.4781 3 
17.2232 8.61636 8.60713 3 
20.0946 8.6162 8.60722 3 
17.2232 11.4872 8.60726 3 
20.0947 11.4872 8.60731 3 
18.6589 10.0517 10.0427 3 
17.223 8.61629 11.4781 3 
20.0945 8.61612 11.4782 3 
17.2231 11.4871 11.4782 3 
20.0946 11.4871 11.4783 3 
22.9668 8.61592 8.60669 3 
22.9668 11.4873 8.60677 3 
21.5307 10.0516 10.0425 3 
22.9658 8.61596 11.4783 3 
22.9658 11.4872 11.4784 3 
24.402 10.0516 10.0424 3 
28.7092 8.61566 8.60907 3 
28.7079 8.616 11.4795 3 
28.709 11.4878 8.6091 3 
25.8381 8.615 8.60732 3 
25.838 11.4883 8.60735 3 
28.7078 11.4874 11.4795 3 
27.2726 10.0516 10.0434 3 
25.8368 8.61579 11.4787 3 
25.8367 11.4874 11.4788 3 
2.86993 14.3597 8.61124 3 
1.43246 12.9233 10.045 3 
1.43342 15.7958 10.046 3 
2.86785 14.3587 11.4804 3 
5.74071 14.3591 8.61048 3 
4.30472 15.7949 10.046 3 
4.30416 12.9231 10.0455 3 
7.17514 12.9229 10.0448 3 
7.17536 15.7942 10.0451 3 
5.73919 14.3584 11.4804 3 
8.61068 14.3585 8.60893 3 
11.4811 14.3582 8.60797 3 
10.0456 12.9228 10.0437 3 
10.0456 15.7938 10.044 3 
8.61003 14.3582 11.4796 3 
11.4807 14.3581 11.4787 3 
14.352 14.3582 8.60752 3 
12.9164 12.9227 10.0429 3 
15.7875 12.9226 10.0428 3 
12.9162 15.7937 10.0432 3 
15.787 15.7939 10.0432 3 
14.3515 14.3581 11.4783 3 
17.2227 14.3584 8.60785 3 
20.0936 14.359 8.60838 3 
18.6587 12.9227 10.043 3 
18.6579 15.7944 10.0437 3 
17.2227 14.3583 11.4784 3 
20.094 14.3585 11.4786 3 
22.9651 14.3598 8.60874 3 
21.5302 12.9228 10.043 3 
21.5291 15.7949 10.0441 3 
22.9653 14.3588 11.4789 3 
24.4008 15.7954 10.0446 3 
24.4015 12.9234 10.0432 3 
28.7105 14.3612 8.61086 3 
25.8375 14.3608 8.60946 3 
28.7083 14.359 11.4799 3 
27.2729 12.9238 10.044 3 
27.2731 15.7959 10.0452 3 
25.8367 14.359 11.4793 3 
2.87119 17.2333 8.61276 3 
2.87018 20.1043 8.61209 3 
1.43342 18.6677 10.0466 3 
2.86853 17.2306 11.4809 3 
2.86872 20.1022 11.481 3 
5.74132 17.2313 8.61115 3 
5.74156 20.1032 8.61137 3 
4.30533 18.6672 10.0466 3 
7.1757 18.6659 10.0455 3 
5.73961 17.2299 11.4806 3 
5.74001 20.1016 11.4808 3 
8.61093 17.23 8.60941 3 
11.4809 17.2295 8.60842 3 
8.61113 20.1016 8.60977 3 
11.4808 20.101 8.60883 3 
10.0457 18.6652 10.0443 3 
8.61014 17.2294 11.4798 3 
11.4805 17.2292 11.4789 3 
8.6103 20.1009 11.48 3 
11.4804 20.1007 11.479 3 
14.3514 17.2297 8.60813 3 
14.351 20.1013 8.60854 3 
12.9159 18.6651 10.0436 3 
15.7863 18.6656 10.0436 3 
14.3511 17.2294 11.4784 3 
14.3507 20.101 11.4786 3 
17.2218 17.2305 8.60869 3 
20.0925 17.2316 8.60969 3 
17.2214 20.1022 8.60902 3 
20.0925 20.103 8.60977 3 
18.6572 18.6663 10.0442 3 
17.222 17.2299 11.4786 3 
20.0933 17.2303 11.479 3 
17.2215 20.1016 11.4788 3 
20.0929 20.102 11.4793 3 
22.9642 17.2325 8.6105 3 
22.9643 20.1037 8.61049 3 
21.5286 18.667 10.0449 3 
22.9649 17.2306 11.4795 3 
22.9647 20.1023 11.4797 3 
24.4006 18.6674 10.0454 3 
28.7095 20.1044 8.61183 3 
28.7087 17.2309 11.4805 3 
28.7088 20.1024 11.4807 3 
28.7103 17.2338 8.61233 3 
25.8369 17.2332 8.61133 3 
25.8367 20.1041 8.61118 3 
27.2729 18.6677 10.0461 3 
25.8367 17.2308 11.48 3 
25.8367 20.1024 11.4802 3 
2.86931 22.9734 8.61076 3 
1.43301 24.4079 10.0457 3 
1.43309 21.5384 10.0462 3 
2.86872 22.9728 11.4808 3 
5.74079 22.973 8.61048 3 
4.3048 24.4078 10.0458 3 
7.17569 24.4077 10.0453 3 
4.30499 21.538 10.0462 3 
7.17583 21.5373 10.0455 3 
5.73999 22.9725 11.4807 3 
8.61101 22.9725 8.60965 3 
11.4807 22.9722 8.60891 3 
10.0456 24.4077 10.0445 3 
10.0457 21.5366 10.0445 3 
8.61037 22.9722 11.48 3 
11.4802 22.9721 11.4791 3 
14.3508 22.9724 8.60856 3 
14.3505 22.9723 11.4787 3 
12.9156 21.5366 10.0438 3 
15.786 21.537 10.0438 3 
12.9155 24.4078 10.0438 3 
15.786 24.4079 10.0437 3 
17.2215 22.9728 8.60871 3 
20.0929 22.9731 8.60909 3 
17.2214 22.9726 11.4787 3 
20.0929 22.9728 11.4791 3 
18.6571 24.408 10.044 3 
18.6571 21.5376 10.0442 3 
22.9647 22.9733 8.60957 3 
24.4007 24.408 10.0449 3 
22.9647 22.973 11.4796 3 
21.5288 24.408 10.0444 3 
21.5287 21.538 10.0447 3 
24.4006 21.5382 10.0453 3 
28.7091 22.9735 8.61053 3 
25.8368 22.9734 8.61007 3 
28.7088 22.973 11.4806 3 
27.2728 21.5384 10.0458 3 
27.2729 24.408 10.0453 3 
25.8368 22.973 11.4801 3 
2.87044 28.7114 8.61194 3 
2.86941 25.8423 8.6107 3 
2.86885 25.8429 11.4808 3 
1.4333 27.2775 10.0461 3 
5.74087 25.8425 8.61041 3 
4.30519 27.2776 10.0461 3 
5.74009 25.843 11.4806 3 
7.17595 27.2782 10.0454 3 
8.61104 25.8429 8.60957 3 
11.4807 25.8433 8.60882 3 
11.4802 25.8434 11.4791 3 
8.61041 25.8433 11.48 3 
10.0457 27.2789 10.0444 3 
14.3508 25.8433 8.60846 3 
14.3504 25.8434 11.4786 3 
15.7859 27.2787 10.0436 3 
12.9155 27.279 10.0436 3 
17.2215 25.8431 8.60861 3 
20.0928 25.8429 8.60901 3 
17.2213 25.8433 11.4787 3 
18.6569 27.2784 10.044 3 
20.0928 25.8432 11.4791 3 
22.9647 25.8427 8.60948 3 
21.5286 27.278 10.0446 3 
24.4007 27.2778 10.0452 3 
22.9647 25.8431 11.4796 3 
28.7097 28.7114 8.61165 3 
25.8368 28.7118 8.611 3 
28.7092 25.8424 8.61046 3 
25.8368 25.8426 8.60999 3 
27.273 27.2776 10.0457 3 
25.8368 25.843 11.4801 3 
28.7089 25.8429 11.4805 3 
1.43279 1.43759 12.9154 3 
2.86854 0.00226074 14.3502 3 
1.4329 1.43749 15.7848 3 
2.86812 2.8738 14.3503 3 
4.30418 1.43799 12.9155 3 
7.17478 1.43852 12.9152 3 
5.73899 2.87427 14.3504 3 
5.73937 0.00270098 14.3503 3 
4.3038 1.43821 15.7853 3 
7.17414 1.43866 15.7853 3 
10.0449 1.43873 12.9143 3 
8.60942 2.87449 14.3499 3 
10.0441 1.43859 15.7846 3 
8.60953 0.00296577 14.3499 3 
11.4795 2.87432 14.349 3 
11.4794 0.00275845 14.3489 3 
14.3495 0.00211768 14.3481 3 
12.915 1.43853 12.9135 3 
15.7856 1.43804 12.9132 3 
14.3498 2.87381 14.3482 3 
12.9138 1.43789 15.7835 3 
15.7841 1.43663 15.7824 3 
20.0927 0.00150132 14.3483 3 
18.657 1.43765 12.9134 3 
20.0927 2.87277 14.3484 3 
17.2208 2.87308 14.3479 3 
18.6559 1.43608 15.7824 3 
17.2207 0.00165991 14.3479 3 
22.9649 0.00152559 14.3488 3 
21.5288 1.43744 12.9139 3 
24.4009 1.43737 12.9144 3 
22.9649 2.87281 14.349 3 
21.5286 1.43614 15.7829 3 
24.4011 1.43645 15.7836 3 
28.7087 2.87334 14.3499 3 
27.2729 1.4374 12.9149 3 
27.2733 1.43688 15.7842 3 
25.8369 2.87299 14.3495 3 
25.837 0.00165485 14.3493 3 
28.709 0.00188169 14.3498 3 
1.4323 4.30919 12.9152 3 
1.43155 7.18064 12.9151 3 
1.43222 4.30929 15.7852 3 
1.43133 7.18078 15.7858 3 
2.86742 5.74531 14.3504 3 
4.30363 4.30964 12.9154 3 
4.30308 7.18093 12.9153 3 
7.17448 4.30998 12.9151 3 
7.17424 7.18111 12.9151 3 
4.3032 4.30981 15.7856 3 
4.30261 7.18101 15.7859 3 
7.17384 4.31012 15.7856 3 
7.17355 7.18117 15.7858 3 
5.73855 5.74558 14.3505 3 
10.0449 4.31011 12.9143 3 
10.0449 7.18114 12.9143 3 
8.60927 5.7457 14.35 3 
10.0442 4.31006 15.7849 3 
10.0442 7.18112 15.7851 3 
11.4797 5.7456 14.3491 3 
15.7862 4.30962 12.9132 3 
12.9153 4.30997 12.9135 3 
12.9156 7.18104 12.9135 3 
15.7867 7.18085 12.9133 3 
12.9142 4.30962 15.7838 3 
15.7847 4.30885 15.7829 3 
12.9146 7.18089 15.784 3 
15.7854 7.18057 15.7833 3 
14.3504 5.74529 14.3484 3 
18.6575 4.30919 12.9134 3 
18.6582 7.18057 12.9135 3 
17.2216 5.74487 14.3484 3 
20.0931 5.74438 14.3489 3 
18.656 4.3078 15.7828 3 
18.657 7.18013 15.7838 3 
21.5291 4.30892 12.9139 3 
24.4009 4.30883 12.9144 3 
21.5296 7.18031 12.9139 3 
24.4009 7.18022 12.9144 3 
22.9649 5.74431 14.3495 3 
21.5284 4.30768 15.7836 3 
24.4008 4.30809 15.7844 3 
21.5286 7.17953 15.7848 3 
24.4002 7.17986 15.7857 3 
27.2726 4.30892 12.9148 3 
27.2721 7.18036 12.9148 3 
28.7079 5.74495 14.3502 3 
27.2728 4.30867 15.7848 3 
27.2717 7.18049 15.7859 3 
25.8364 5.74459 14.35 3 
1.43114 10.0517 12.9151 3 
2.86672 11.4872 14.3506 3 
1.43088 10.0517 15.786 3 
2.86686 8.61634 14.3506 3 
4.30278 10.0518 12.9153 3 
7.17409 10.0519 12.9151 3 
5.73811 11.4872 14.3506 3 
4.30231 10.0518 15.7861 3 
7.17341 10.0519 15.7859 3 
5.73821 8.61651 14.3506 3 
10.0449 10.0519 12.9143 3 
8.60918 8.61655 14.3501 3 
8.60915 11.4872 14.3502 3 
11.4799 11.4872 14.3493 3 
11.4798 8.61649 14.3492 3 
10.0442 10.0519 15.7852 3 
12.9158 10.0518 12.9136 3 
15.787 10.0518 12.9134 3 
14.3508 11.4872 14.3486 3 
12.9147 10.0518 15.7841 3 
15.7858 10.0518 15.7835 3 
14.3507 8.61636 14.3485 3 
18.6586 10.0516 12.9136 3 
17.2222 8.61616 14.3486 3 
20.0939 11.4873 14.3493 3 
20.0938 8.61593 14.3493 3 
18.6576 10.0517 15.7841 3 
17.2223 11.4872 14.3487 3 
21.5299 10.0516 12.914 3 
24.4008 10.0516 12.9144 3 
22.9649 8.61574 14.35 3 
22.9649 11.4874 14.35 3 
21.5291 10.0516 15.7854 3 
24.3997 10.0516 15.7864 3 
27.2717 10.0516 12.9148 3 
25.8358 11.4872 14.3505 3 
27.2711 10.0516 15.7863 3 
28.7073 8.61616 14.3505 3 
28.7072 11.4871 14.3505 3 
25.8359 8.61597 14.3505 3 
1.43132 12.9228 12.9152 3 
1.43192 15.7943 12.9153 3 
2.86708 14.3582 14.3505 3 
1.43108 12.9226 15.7858 3 
1.43183 15.7942 15.7852 3 
4.30328 15.794 12.9155 3 
4.30287 12.9227 12.9154 3 
7.17411 12.9227 12.9152 3 
7.17428 15.7937 12.9152 3 
4.30238 12.9226 15.7859 3 
4.30283 15.7938 15.7856 3 
7.17344 12.9226 15.7858 3 
7.17365 15.7936 15.7856 3 
5.73829 14.3581 14.3506 3 
10.0449 12.9227 12.9144 3 
10.0449 15.7936 12.9144 3 
11.4798 14.3581 14.3492 3 
10.0442 12.9226 15.7851 3 
10.0442 15.7936 15.7849 3 
8.60919 14.3581 14.3501 3 
12.9157 12.9226 12.9136 3 
15.7869 12.9227 12.9134 3 
12.9155 15.7937 12.9136 3 
15.7864 15.794 12.9134 3 
12.9147 12.9228 15.784 3 
15.7856 12.923 15.7834 3 
12.9144 15.7941 15.7838 3 
15.785 15.7948 15.7829 3 
14.3506 14.3583 14.3485 3 
18.6584 12.9228 12.9137 3 
18.6577 15.7944 12.9136 3 
17.2218 14.3586 14.3485 3 
18.6572 12.9232 15.7839 3 
18.6562 15.7958 15.7829 3 
20.0933 14.359 14.349 3 
21.5297 12.9229 12.914 3 
21.5292 15.7946 12.9141 3 
24.4008 15.7946 12.9145 3 
24.4008 12.923 12.9144 3 
21.5287 12.9237 15.7849 3 
21.5285 15.7958 15.7837 3 
24.4008 15.7954 15.7844 3 
24.4002 12.9233 15.7857 3 
22.9649 14.359 14.3496 3 
28.7077 14.3584 14.3503 3 
27.2719 12.9229 12.9148 3 
27.2724 15.7945 12.9149 3 
25.8363 14.3587 14.35 3 
27.2715 12.9228 15.7859 3 
27.2725 15.7948 15.7848 3 
1.43241 18.6661 12.9154 3 
1.43253 18.6662 15.7847 3 
2.8677 17.2298 14.3503 3 
2.8682 20.1015 14.3502 3 
4.30381 18.6657 12.9156 3 
7.17457 18.6651 12.9153 3 
4.30342 18.6654 15.7853 3 
7.17393 18.665 15.7853 3 
5.7391 20.1009 14.3504 3 
5.73868 17.2294 14.3504 3 
10.0449 18.6649 12.9145 3 
11.4795 20.1009 14.349 3 
8.6093 17.2292 14.35 3 
10.0442 18.665 15.7846 3 
8.60943 20.1006 14.3499 3 
11.4796 17.2294 14.3491 3 
14.3497 20.1016 14.3481 3 
12.9152 18.6651 12.9136 3 
15.7859 18.6657 12.9133 3 
12.914 18.6658 15.7835 3 
15.7843 18.6671 15.7824 3 
14.3501 17.2299 14.3483 3 
18.6572 18.6661 12.9136 3 
17.2209 20.1022 14.348 3 
18.6562 18.6677 15.7824 3 
17.2211 17.2306 14.3481 3 
20.0929 17.2309 14.3485 3 
20.0929 20.1024 14.3484 3 
21.529 18.6663 12.9141 3 
24.4008 18.6664 12.9145 3 
22.9649 17.2308 14.3491 3 
21.5287 18.6676 15.783 3 
24.4011 18.6673 15.7836 3 
22.965 20.1024 14.3489 3 
27.2727 18.6663 12.915 3 
28.7087 20.1019 14.3498 3 
25.837 20.1022 14.3493 3 
27.2731 18.6668 15.7842 3 
28.7084 17.2302 14.3499 3 
25.8368 17.2306 14.3495 3 
1.43265 21.5374 12.9154 3 
1.43278 24.4079 12.9154 3 
1.4327 21.5375 15.7848 3 
1.43274 24.4079 15.7851 3 
2.86839 22.9726 14.3503 3 
5.7393 22.9723 14.3503 3 
4.30409 21.537 12.9156 3 
7.17482 21.5366 12.9153 3 
4.30421 24.4079 12.9156 3 
7.17489 24.4078 12.9153 3 
4.30374 21.5369 15.7852 3 
7.17417 21.5365 15.7852 3 
7.17427 24.4078 15.7851 3 
4.30386 24.4078 15.7853 3 
10.0449 24.4078 12.9145 3 
10.0449 21.5364 12.9145 3 
10.0441 21.5366 15.7844 3 
10.0442 24.4078 15.7844 3 
11.4794 22.9722 14.3489 3 
8.60952 22.9721 14.3499 3 
15.7855 24.4079 12.9134 3 
15.7856 21.5371 12.9134 3 
12.9149 24.4078 12.9137 3 
12.9149 21.5366 12.9137 3 
14.3498 22.9726 14.3483 3 
12.9139 21.5373 15.7834 3 
15.7847 21.538 15.7828 3 
15.7849 24.4079 15.7832 3 
12.9141 24.4078 15.7836 3 
18.657 24.408 12.9136 3 
18.657 21.5374 12.9136 3 
20.0928 22.973 14.3486 3 
18.6565 21.5383 15.7829 3 
18.6567 24.408 15.7833 3 
17.221 22.9729 14.3482 3 
21.5288 24.408 12.9141 3 
24.4009 24.4081 12.9146 3 
21.5289 21.5376 12.9141 3 
24.4008 21.5377 12.9146 3 
21.5288 21.5383 15.7833 3 
24.4011 21.5382 15.7839 3 
22.9649 22.973 14.349 3 
21.5288 24.408 15.7838 3 
24.401 24.408 15.7842 3 
28.7089 22.9728 14.35 3 
27.2729 24.408 12.9151 3 
27.2728 21.5376 12.915 3 
25.837 22.973 14.3495 3 
27.2731 21.5379 15.7844 3 
27.273 24.408 15.7847 3 
1.43289 27.2784 12.9154 3 
2.86852 25.8432 14.3503 3 
1.43293 27.2784 15.7849 3 
7.17494 27.279 12.9153 3 
4.30431 27.2787 12.9156 3 
5.73941 25.8434 14.3503 3 
4.30398 27.2788 15.7852 3 
7.1743 27.2791 15.7852 3 
11.4794 25.8433 14.3489 3 
8.60956 25.8434 14.3498 3 
10.0449 27.2792 12.9144 3 
10.0441 27.279 15.7845 3 
14.3497 25.8431 14.3483 3 
15.7855 27.2787 12.9133 3 
12.9148 27.279 12.9136 3 
12.9138 27.2784 15.7834 3 
15.7845 27.2778 15.7828 3 
20.0927 25.843 14.3485 3 
18.6569 27.2785 12.9135 3 
17.2209 25.843 14.3482 3 
18.6564 27.2776 15.7829 3 
22.9649 25.8431 14.349 3 
24.4009 27.2784 12.9145 3 
21.5288 27.2784 12.914 3 
21.5287 27.2777 15.7833 3 
24.4011 27.2778 15.7839 3 
25.837 25.8431 14.3495 3 
27.273 27.2784 12.915 3 
28.709 25.8431 14.35 3 