ITEM: TIMESTEP
44042
ITEM: NUMBER OF ATOMS
2001
ITEM: BOX BOUNDS pp pp pp
0.0000000000000000e+00 2.8712000000000000e+01
0.0000000000000000e+00 2.8712000000000000e+01
0.0000000000000000e+00 2.8712000000000000e+01
ITEM: ATOMS x y z c_cna 
1.43761 1.43087 1.43247 3 
2.87713 2.86323 2.87131 3 
0.00576823 2.86046 2.87523 3 
4.30824 1.43266 1.43124 3 
7.17638 1.4361 1.4305 3 
5.74262 2.86998 2.86787 3 
10.0454 1.43745 1.4302 3 
8.61087 2.87286 2.86628 3 
11.4804 2.87342 2.86594 3 
11.4802 0.00181629 2.86624 3 
8.61109 0.00137276 2.8663 3 
12.9146 1.43685 1.43057 3 
15.7836 1.43447 1.43166 3 
14.3498 2.87221 2.86672 3 
14.3496 0.000788967 2.86672 3 
18.6549 1.43302 1.43199 3 
17.2187 2.86894 2.86882 3 
20.0921 2.86831 2.86715 3 
21.5285 1.43345 1.4307 3 
22.9623 2.86532 2.87036 3 
24.4012 1.43371 1.43202 3 
27.2759 1.43253 1.43333 3 
25.8385 2.86381 2.87264 3 
1.44776 4.29125 1.43659 3 
1.44504 7.16403 1.44565 3 
2.87755 5.73504 2.8758 3 
0.0367583 5.70116 2.90641 3 
4.30836 4.30352 1.43265 3 
7.17556 4.30787 1.43072 3 
4.30513 7.17698 1.43348 3 
7.17431 7.17985 1.43061 3 
5.74116 5.74251 2.86818 3 
10.0453 4.30916 1.42998 3 
10.0452 7.18065 1.4296 3 
8.6103 5.74462 2.86596 3 
11.4808 5.74518 2.86532 3 
15.7841 4.3064 1.43169 3 
12.9153 4.30883 1.43014 3 
12.9164 7.18079 1.42919 3 
15.7867 7.18011 1.42968 3 
14.351 5.74477 2.86571 3 
18.6504 4.29965 1.43662 3 
18.6536 7.17604 1.43414 3 
17.2202 5.74256 2.86774 3 
20.0943 5.74143 2.86506 3 
20.0764 5.72417 0.00878533 3 
24.3986 4.2974 1.43848 3 
21.5292 4.3015 1.43018 3 
21.5373 7.17857 1.42215 3 
22.9506 5.7241 2.88306 3 
24.3688 7.13515 1.4802 3 
27.2858 4.29187 1.44335 3 
27.3703 7.07675 1.52799 3 
25.8382 5.71283 2.89234 3 
25.8469 5.70924 0.0044069 3 
1.42934 10.0519 1.4304 3 
2.87013 8.61622 2.86883 3 
2.8701 11.4876 2.86885 3 
0.00150137 8.62645 2.87129 3 
0.0062086 11.5186 0.0168946 3 
0.00621357 8.58524 0.0169183 3 
0.00147472 11.4773 2.8713 3 
4.30275 10.0519 1.43132 3 
7.17377 10.0519 1.43018 3 
5.7394 8.61588 2.86664 3 
5.7394 11.4879 2.86669 3 
10.0452 10.0519 1.42935 3 
8.60989 8.61625 2.86542 3 
11.481 8.61641 2.86478 3 
8.60989 11.4875 2.86544 3 
11.481 11.4873 2.86482 3 
12.9168 10.0519 1.42871 3 
15.7879 10.0519 1.42845 3 
14.352 8.61644 2.86472 3 
14.3521 11.4873 2.86475 3 
18.6573 10.0519 1.43026 3 
17.2227 8.61618 2.86545 3 
20.0991 8.61657 2.86033 3 
17.2227 11.4876 2.86549 3 
20.0991 11.4872 2.86038 3 
20.0826 8.60672 0.00368232 3 
20.0826 11.4971 0.00370891 3 
21.547 10.0519 1.41256 3 
22.9557 8.60664 2.87697 3 
22.9557 11.4971 2.87704 3 
24.4056 10.0519 1.53301 5 
25.9871 8.21428 0.144568 5 
27.2211 10.0519 1.37894 5 
25.8593 8.58515 2.87602 3 
25.8593 11.5186 2.87607 3 
25.987 11.8895 0.144575 5 
1.44498 12.9398 1.44567 3 
1.44771 15.8125 1.43674 3 
2.87748 14.3687 2.8759 3 
0.0367084 14.4026 2.90652 3 
4.30834 15.8002 1.43282 3 
4.3051 12.9268 1.43356 3 
7.17431 12.924 1.43069 3 
7.17554 15.7959 1.4309 3 
5.74115 14.3612 2.86835 3 
10.0453 12.9231 1.42967 3 
10.0453 15.7946 1.43016 3 
8.6103 14.3591 2.86612 3 
11.4808 14.3586 2.86546 3 
12.9164 12.923 1.42923 3 
15.7867 12.9237 1.42975 3 
12.9154 15.7949 1.43029 3 
15.7841 15.7973 1.43185 3 
14.351 14.359 2.86585 3 
18.6535 12.9277 1.43423 3 
18.6504 15.8041 1.43679 3 
17.2202 14.3612 2.86788 3 
20.0943 14.3623 2.86521 3 
20.0763 14.3796 0.00888273 3 
21.5373 12.9252 1.42224 3 
21.5291 15.8022 1.43037 3 
22.9506 14.3796 2.88325 3 
24.3688 12.9687 1.48029 3 
24.3986 15.8063 1.43867 3 
27.3703 13.0271 1.52805 3 
27.2858 15.8118 1.44349 3 
25.8382 14.3909 2.8925 3 
25.8469 14.3946 0.00447075 3 
1.43758 18.6728 1.43272 3 
2.87709 17.2404 2.87156 3 
2.87182 20.1059 2.8683 3 
0.00569501 17.2432 2.87549 3 
4.30823 18.671 1.43147 3 
7.17637 18.6675 1.43072 3 
5.74259 17.2337 2.86812 3 
5.74214 20.1043 2.86723 3 
10.0454 18.6661 1.43043 3 
8.61086 17.2308 2.86653 3 
11.4804 17.2302 2.8662 3 
8.61108 20.1022 2.86655 3 
11.4802 20.1018 2.86645 3 
12.9146 18.6667 1.43077 3 
15.7837 18.6692 1.4319 3 
14.3498 17.2315 2.86699 3 
14.3496 20.1028 2.86695 3 
18.655 18.6707 1.43222 3 
17.2187 17.2348 2.86908 3 
20.0921 17.2354 2.86736 3 
17.2204 20.104 2.86722 3 
20.0926 20.1043 2.86676 3 
21.5286 18.6702 1.43094 3 
24.4012 18.67 1.43226 3 
22.9623 17.2384 2.87062 3 
22.9647 20.1045 2.86738 3 
28.7113 20.1056 2.86895 3 
27.2759 18.6711 1.43357 3 
25.8385 17.2399 2.87289 3 
25.8376 20.1047 2.86819 3 
1.43412 21.5392 1.43122 3 
2.86969 22.9736 2.86703 3 
1.4333 24.4078 1.43072 3 
4.305 24.4078 1.43052 3 
4.30585 21.5391 1.43079 3 
7.17611 21.5381 1.43049 3 
5.74092 22.9733 2.86669 3 
7.17572 24.4078 1.43035 3 
10.0454 21.5373 1.43044 3 
8.6109 22.9728 2.86641 3 
11.4803 22.9726 2.86636 3 
10.0454 24.4078 1.43034 3 
12.9147 21.5377 1.43065 3 
15.7851 21.5384 1.43083 3 
14.3503 22.9729 2.86641 3 
12.915 24.4078 1.43042 3 
15.7856 24.4078 1.43037 3 
18.6568 21.5387 1.43058 3 
17.2214 22.9732 2.86629 3 
20.0932 22.9732 2.86611 3 
18.6573 24.4078 1.43015 3 
21.5291 21.5385 1.43034 3 
24.4013 21.5383 1.43074 3 
21.5292 24.4078 1.43002 3 
22.9652 22.9732 2.86635 3 
24.4012 24.4078 1.43032 3 
28.7096 22.9734 2.8671 3 
27.2737 21.5385 1.43125 3 
25.8373 22.9732 2.86674 3 
27.2732 24.4078 1.43066 3 
2.87185 28.7097 2.86807 3 
1.43416 27.2764 1.43104 3 
2.8697 25.8421 2.86693 3 
5.74215 28.7114 2.867 3 
4.30589 27.2764 1.43065 3 
7.17612 27.2774 1.43034 3 
5.74093 25.8423 2.86658 3 
10.0454 27.2782 1.43028 3 
8.61091 25.8428 2.86633 3 
11.4803 25.843 2.86628 3 
12.9147 27.2779 1.4305 3 
15.7851 27.2771 1.43063 3 
14.3503 25.8427 2.86631 3 
17.2204 28.7116 2.86696 3 
20.0926 28.7113 2.86653 3 
18.6568 27.2769 1.43042 3 
17.2214 25.8425 2.86617 3 
20.0932 25.8424 2.86603 3 
22.9646 28.7112 2.86712 3 
21.529 27.2771 1.43016 3 
22.9651 25.8425 2.86621 3 
24.4012 27.2773 1.43057 3 
28.7113 28.71 2.86868 3 
25.8376 28.711 2.86793 3 
28.7096 25.8423 2.86699 3 
27.2737 27.2771 1.43106 3 
25.8373 25.8425 2.86664 3 
1.43847 1.4296 4.3079 3 
1.43598 1.43209 7.17857 3 
2.8771 2.86394 5.74653 3 
0.0018219 2.8631 5.74664 3 
4.3091 1.43217 4.30534 3 
7.17694 1.43602 4.30298 3 
4.30844 1.43336 7.17782 3 
7.17698 1.43658 7.17494 3 
5.7431 2.87036 5.74081 3 
10.0458 1.43765 4.30196 3 
10.0461 1.43808 7.17337 3 
8.61128 2.87309 5.7381 3 
11.4808 2.87385 5.73726 3 
11.4806 0.00227428 5.73769 3 
8.6114 0.00162426 5.73825 3 
12.9152 1.43747 4.30204 3 
15.7849 1.43585 4.3029 3 
12.9158 1.43819 7.17292 3 
15.7861 1.43746 7.17303 3 
14.3508 2.8733 5.73747 3 
14.3504 0.00167931 5.73784 3 
18.6564 1.43479 4.30264 3 
18.6562 1.4358 7.17424 3 
17.2214 2.87207 5.73772 3 
20.0903 2.86887 5.74049 3 
17.2212 0.000828287 5.73786 3 
21.5271 1.43293 4.30423 3 
24.4002 1.43206 4.30555 3 
21.5274 1.43434 7.17555 3 
24.4 1.43335 7.17665 3 
22.9622 2.8665 5.74274 3 
27.275 1.43079 4.30707 3 
27.2737 1.43251 7.17774 3 
25.8369 2.86473 5.74462 3 
1.45062 4.2893 4.32017 3 
1.44006 7.18001 4.30975 3 
1.43811 4.30319 7.17945 3 
1.43507 7.17953 7.17615 3 
2.87394 5.74215 5.7435 3 
0.00617801 5.73487 5.74718 3 
4.3065 7.17968 4.30467 3 
7.17637 4.30789 4.30305 3 
4.30993 4.30333 4.30759 3 
7.17535 7.18036 4.30208 3 
4.30756 4.30702 7.17702 3 
7.17635 4.30884 7.17433 3 
4.30641 7.18008 7.17598 3 
5.74158 5.744 5.73958 3 
7.17586 7.1806 7.17375 3 
10.0457 4.30932 4.30153 3 
10.0456 7.18081 4.30094 3 
10.0459 4.30967 7.17283 3 
8.61078 5.74498 5.73744 3 
10.0459 7.18092 7.17239 3 
11.481 5.74539 5.73666 3 
12.9158 4.30938 4.30143 3 
15.7856 4.30813 4.30235 3 
12.9164 7.18095 4.3007 3 
15.7872 7.18068 4.30102 3 
12.9162 4.30982 7.17234 3 
15.7869 4.30935 7.17229 3 
12.9165 7.18102 7.17189 3 
14.3516 5.74525 5.73666 3 
15.7878 7.18093 7.17155 3 
18.6568 4.30799 7.17358 3 
18.657 4.30655 4.30216 3 
18.6597 7.18023 4.29965 3 
17.2228 5.74466 5.73643 3 
18.6583 7.18055 7.1722 3 
20.0915 5.74241 5.73907 3 
21.5226 4.29954 4.30882 3 
24.3972 4.29533 4.31314 3 
21.5252 7.17592 4.30586 3 
24.4013 7.17084 4.30928 3 
21.5275 4.30616 7.17518 3 
24.4003 4.30461 7.17634 3 
21.5296 7.17989 7.1727 3 
22.9629 5.73952 5.74155 3 
24.4021 7.17814 7.17301 3 
27.279 4.29109 4.31732 3 
27.288 7.16388 4.31477 3 
27.2751 4.30322 7.17792 3 
25.839 5.73642 5.74354 3 
27.2758 7.17671 7.17483 3 
1.4388 10.0519 4.30857 3 
1.43411 10.0518 7.17549 3 
2.8723 8.61589 5.74197 3 
2.87226 11.4878 5.74202 3 
4.30603 10.0518 7.17568 3 
4.30575 10.0519 4.3038 3 
7.17505 10.0519 4.30169 3 
5.74087 8.61611 5.7388 3 
7.17571 10.0518 7.17359 3 
5.74089 11.4875 5.73888 3 
10.0456 10.0519 4.30071 3 
8.61055 8.61632 5.73701 3 
10.0459 10.0518 7.1723 3 
11.4811 8.61644 5.73629 3 
8.61056 11.4873 5.73708 3 
11.4811 11.4872 5.73635 3 
12.9166 10.0519 4.30043 3 
15.7877 10.0518 4.30052 3 
12.9166 10.0518 7.17178 3 
14.3521 8.61643 5.73615 3 
15.7881 10.0518 7.17131 3 
14.3521 11.4872 5.73619 3 
18.661 10.0519 4.29847 3 
17.224 8.61637 5.73535 3 
18.6589 10.0518 7.17172 3 
20.0939 8.61608 5.73669 3 
17.224 11.4873 5.7354 3 
20.0939 11.4876 5.73675 3 
21.5291 10.0519 4.30219 3 
24.4103 10.0519 4.3025 3 
21.5309 10.0518 7.17154 3 
22.967 8.61534 5.73662 3 
22.9671 11.4883 5.73668 3 
24.4041 10.0518 7.17048 3 
28.7111 11.4875 5.73995 3 
28.7111 8.61608 5.73991 3 
27.2727 10.0518 4.29923 3 
25.8417 8.61135 5.73722 3 
27.2736 10.0517 7.17255 3 
25.8417 11.4922 5.73731 3 
1.43999 12.9237 4.30981 3 
1.45054 15.8144 4.32038 3 
1.43503 12.924 7.17623 3 
1.43806 15.8004 7.17964 3 
2.87387 14.3615 5.74362 3 
0.00612064 14.3687 5.74734 3 
4.30988 15.8003 4.3078 3 
4.30647 12.924 4.30478 3 
7.17535 12.9234 4.30221 3 
7.17637 15.7958 4.30328 3 
4.30753 15.7966 7.17716 3 
4.30638 12.9235 7.17604 3 
7.17587 12.923 7.17386 3 
5.74158 14.3596 5.73973 3 
7.17633 15.7948 7.17452 3 
10.0456 12.9229 4.30106 3 
10.0457 15.7943 4.30177 3 
10.0459 12.9227 7.17254 3 
8.6108 14.3587 5.73765 3 
10.0459 15.794 7.17306 3 
11.481 14.3583 5.73686 3 
12.9164 12.9228 4.3008 3 
15.7871 12.923 4.30113 3 
12.9158 15.7943 4.30167 3 
15.7857 15.7956 4.30258 3 
12.9165 12.9226 7.17202 3 
15.7878 12.9226 7.17165 3 
12.9162 15.7938 7.17257 3 
14.3516 14.3584 5.73684 3 
15.7869 15.7943 7.17249 3 
18.6597 12.9235 4.29974 3 
18.657 15.7971 4.30238 3 
18.6583 12.923 7.17228 3 
17.2228 14.359 5.73658 3 
18.6568 15.7956 7.17375 3 
20.0915 14.3612 5.73923 3 
21.5252 12.9278 4.30599 3 
21.5226 15.8041 4.30906 3 
24.4013 12.9329 4.30942 3 
24.3972 15.8084 4.31339 3 
21.5296 12.9237 7.17282 3 
21.5275 15.7974 7.17539 3 
22.9629 14.3641 5.74175 3 
24.4021 12.9254 7.17316 3 
24.4003 15.799 7.1766 3 
27.2879 12.9398 4.31489 3 
27.279 15.8126 4.31756 3 
27.2758 12.9268 7.17493 3 
25.839 14.3672 5.74377 3 
27.275 15.8004 7.17813 3 
1.43844 18.674 4.30817 3 
1.43598 18.6716 7.17878 3 
2.87706 17.2397 5.74677 3 
2.87199 20.1061 5.74162 3 
0.0017774 17.2405 5.74689 3 
4.30908 18.6715 4.3056 3 
7.17692 18.6677 4.30325 3 
4.30842 18.6703 7.17802 3 
5.74308 17.2333 5.74104 3 
7.17696 18.6671 7.17513 3 
5.74246 20.1042 5.73997 3 
10.0458 18.666 4.30222 3 
8.61124 17.2306 5.73836 3 
10.046 18.6657 7.17358 3 
11.4808 17.2298 5.73752 3 
8.61139 20.1021 5.73848 3 
11.4806 20.1015 5.73788 3 
12.9152 18.6662 4.30231 3 
15.7849 18.6678 4.30318 3 
12.9157 18.6655 7.17312 3 
14.3507 17.2304 5.73773 3 
15.7861 18.6663 7.17322 3 
14.3504 20.1021 5.73804 3 
18.6565 18.6689 4.30291 3 
17.2214 17.2316 5.738 3 
18.6562 18.6679 7.17447 3 
20.0903 17.2348 5.74076 3 
17.2212 20.1029 5.73808 3 
20.0921 20.1041 5.73893 3 
21.5272 18.6708 4.30449 3 
24.4002 18.6716 4.30583 3 
21.5274 18.6693 7.17576 3 
22.9622 17.2372 5.74303 3 
22.9641 20.1048 5.73978 3 
24.4 18.6704 7.17688 3 
28.7107 20.106 5.74151 3 
27.275 18.6729 4.30734 3 
25.8369 17.2389 5.7449 3 
27.2738 18.6712 7.17796 3 
25.837 20.1054 5.74065 3 
1.43454 21.5397 4.30414 3 
1.4336 24.4079 4.30306 3 
1.43409 21.5395 7.17595 3 
2.86992 22.9737 5.73941 3 
1.43349 24.408 7.1749 3 
4.30635 21.5394 4.30359 3 
7.17653 21.5382 4.30278 3 
7.17609 24.4079 4.30252 3 
4.30541 24.4079 4.30291 3 
4.30547 24.4079 7.1749 3 
4.30626 21.5392 7.17579 3 
7.17661 21.538 7.1747 3 
5.74122 22.9734 5.73895 3 
7.17624 24.4079 7.17436 3 
10.0458 21.5373 4.30229 3 
10.0458 24.4078 4.30221 3 
10.046 21.5371 7.17372 3 
8.61119 22.9728 5.73829 3 
10.0459 24.4079 7.17365 3 
11.4806 22.9726 5.73787 3 
12.9152 21.5374 4.30227 3 
15.7856 21.538 4.30238 3 
12.9154 24.4079 4.30209 3 
15.7859 24.4079 4.30199 3 
12.9156 21.537 7.1733 3 
15.786 21.5374 7.17322 3 
14.3506 22.9727 5.73772 3 
15.7861 24.4079 7.17306 3 
12.9157 24.4079 7.17322 3 
18.657 21.5385 4.30226 3 
18.6573 24.4079 4.30188 3 
18.6568 21.5381 7.1737 3 
17.2215 22.973 5.73768 3 
20.0929 22.9732 5.73794 3 
18.6571 24.4079 7.1733 3 
21.5287 21.5389 4.30262 3 
24.401 21.539 4.30314 3 
21.5291 24.4078 4.30203 3 
24.4011 24.4079 4.30239 3 
21.5284 21.5387 7.17428 3 
22.9648 22.9734 5.73832 3 
24.4008 24.4079 7.1741 3 
24.4006 21.539 7.17487 3 
21.5287 24.4079 7.17367 3 
28.7095 22.9737 5.73925 3 
27.2737 21.5393 4.30375 3 
27.2733 24.4079 4.3028 3 
27.2732 21.5393 7.17547 3 
25.837 22.9735 5.73879 3 
27.2731 24.4079 7.17454 3 
1.43452 27.276 4.30394 3 
2.872 28.7096 5.74139 3 
1.43407 27.2763 7.17579 3 
2.86992 25.8421 5.73932 3 
5.74247 28.7115 5.73975 3 
4.30637 27.2763 4.30343 3 
7.17653 27.2775 4.30263 3 
4.30627 27.2766 7.17563 3 
5.74121 25.8424 5.73887 3 
7.17662 27.2778 7.17457 3 
10.0458 27.2784 4.30215 3 
8.61118 25.843 5.73824 3 
10.046 27.2788 7.17359 3 
11.4806 25.8432 5.73783 3 
12.9152 27.2783 4.30213 3 
15.7856 27.2777 4.3022 3 
12.9156 27.2788 7.17319 3 
14.3507 25.8431 5.73765 3 
15.786 27.2784 7.17309 3 
18.657 27.2772 4.30208 3 
20.0921 28.7116 5.73873 3 
17.2215 25.8428 5.73759 3 
18.6568 27.2777 7.17354 3 
20.0929 25.8425 5.73784 3 
22.9641 28.7109 5.73957 3 
21.5287 27.2769 4.30243 3 
24.4009 27.2767 4.30295 3 
21.5284 27.2771 7.17414 3 
22.9648 25.8424 5.73823 3 
24.4005 27.2768 7.17477 3 
28.7107 28.7097 5.7413 3 
28.7095 25.8421 5.73915 3 
27.2736 27.2764 4.30356 3 
25.837 28.7104 5.74044 3 
25.837 25.8423 5.7387 3 
27.2732 27.2765 7.17535 3 
2.87144 2.87026 8.61257 3 
1.4337 1.43586 10.0464 3 
2.86881 2.87298 11.4808 3 
2.86905 0.00152969 11.4809 3 
5.74157 2.87248 8.61097 3 
4.30564 1.43653 10.0464 3 
7.17595 1.43786 10.0453 3 
5.73987 2.87378 11.4805 3 
5.74029 0.00210342 11.4807 3 
5.74181 0.000534414 8.61119 3 
8.61107 2.8738 8.60921 3 
11.4809 2.87429 8.60818 3 
11.4808 0.00277684 8.6086 3 
10.0458 1.4386 10.0441 3 
8.61032 2.87431 11.4797 3 
11.4805 2.87447 11.4788 3 
11.4803 0.00303543 11.479 3 
8.61128 0.00217704 8.60959 3 
8.61048 0.00282355 11.4799 3 
14.3513 2.87406 8.6079 3 
12.9158 1.43865 10.0434 3 
15.7862 1.43811 10.0435 3 
14.3509 2.87423 11.4784 3 
14.3508 0.00250999 8.60831 3 
14.3505 0.00270138 11.4785 3 
17.2216 2.8732 8.60847 3 
20.0923 2.87202 8.60947 3 
17.2212 0.00162848 8.60879 3 
18.657 1.43733 10.0441 3 
17.2218 2.8737 11.4785 3 
20.0931 2.87318 11.479 3 
20.0923 0.000723817 8.60956 3 
17.2213 0.00217487 11.4787 3 
20.0927 0.0017314 11.4792 3 
22.9641 2.87103 8.6103 3 
22.9646 0.00142822 11.4797 3 
21.5284 1.43667 10.0447 3 
24.4005 1.4362 10.0453 3 
22.9648 2.87283 11.4794 3 
22.9642 7.15591e-05 8.61034 3 
28.7104 2.86975 8.61214 3 
28.709 0.00129549 11.4806 3 
25.8369 2.87024 8.61116 3 
25.8368 0.0012918 11.4802 3 
28.7089 2.87261 11.4804 3 
27.273 1.43589 10.0459 3 
25.8368 2.8726 11.4798 3 
2.87009 5.74389 8.61112 3 
1.43361 4.30769 10.0459 3 
1.43251 7.18014 10.0449 3 
2.86802 5.74487 11.4803 3 
5.74089 5.7447 8.61034 3 
4.30426 7.18055 10.0453 3 
7.17557 4.30954 10.045 3 
4.30495 4.30879 10.0458 3 
7.17526 7.18084 10.0447 3 
5.73938 5.74528 11.4802 3 
8.61081 5.74528 8.60873 3 
11.4811 5.74554 8.60776 3 
10.0457 4.30997 10.0438 3 
10.0457 7.181 10.0436 3 
8.61016 5.74555 11.4795 3 
11.4807 5.7456 11.4786 3 
14.3519 5.7455 8.60738 3 
15.7868 4.30974 10.0431 3 
12.9161 4.31003 10.0431 3 
12.9164 7.18104 10.0429 3 
15.7874 7.18097 10.0428 3 
14.3514 5.74552 11.4782 3 
17.2226 5.74512 8.60771 3 
20.0935 5.7445 8.60827 3 
18.6577 4.30914 10.0435 3 
18.6586 7.18076 10.043 3 
17.2225 5.74524 11.4783 3 
20.0939 5.7449 11.4785 3 
22.9651 5.74353 8.60863 3 
21.529 4.3085 10.044 3 
21.5301 7.18048 10.0429 3 
22.9653 5.74451 11.4788 3 
24.4014 7.17987 10.0431 3 
24.4008 4.30791 10.0444 3 
28.7106 5.74223 8.61073 3 
25.8375 5.7425 8.60932 3 
28.7084 5.74435 11.4798 3 
27.2732 4.30751 10.0451 3 
27.273 7.17953 10.0439 3 
25.8368 5.74426 11.4792 3 
2.86919 8.61601 8.61048 3 
2.86918 11.4875 8.61053 3 
1.43202 10.0517 10.0447 3 
2.86745 8.61623 11.48 3 
2.86742 11.4873 11.48 3 
5.7405 8.61619 8.61002 3 
5.7405 11.4874 8.61005 3 
4.304 10.0518 10.0452 3 
7.17518 10.0518 10.0446 3 
5.73907 8.61635 11.4801 3 
5.73904 11.4872 11.4801 3 
8.6107 8.61634 8.60854 3 
11.4812 8.61643 8.60758 3 
8.6107 11.4872 8.6086 3 
11.4812 11.4871 8.60766 3 
10.0457 10.0518 10.0435 3 
8.61006 8.61641 11.4794 3 
11.4808 8.61641 11.4786 3 
8.61006 11.4872 11.4795 3 
11.4808 11.4871 11.4786 3 
14.3523 8.61644 8.60712 3 
14.3523 11.4871 8.60718 3 
12.9166 10.0517 10.0428 3 
15.7877 10.0518 10.0427 3 
14.3517 8.61639 11.4782 3 
14.3518 11.4871 11.4782 3 
17.2233 8.61636 8.60727 3 
20.0946 8.61627 8.60734 3 
17.2233 11.4872 8.60731 3 
20.0946 11.4873 8.60738 3 
18.659 10.0518 10.0428 3 
17.2231 8.61634 11.4783 3 
20.0945 8.61623 11.4783 3 
17.2231 11.4872 11.4783 3 
20.0945 11.4873 11.4784 3 
22.9666 8.61602 8.60677 3 
22.9667 11.4875 8.60683 3 
21.5306 10.0518 10.0426 3 
22.9658 8.61608 11.4784 3 
22.9658 11.4874 11.4784 3 
24.4019 10.0517 10.0425 3 
28.709 11.4878 8.60912 3 
28.7077 8.61603 11.4794 3 
28.7077 11.4875 11.4794 3 
28.709 8.61567 8.60907 3 
25.8379 8.61505 8.60736 3 
25.838 11.4884 8.60739 3 
27.2725 10.0517 10.0434 3 
25.8366 8.61587 11.4787 3 
25.8367 11.4876 11.4788 3 
2.87006 14.3597 8.6112 3 
1.43249 12.9234 10.0449 3 
1.43359 15.7959 10.046 3 
2.86798 14.3587 11.4802 3 
5.74086 14.3589 8.61042 3 
4.30494 15.7948 10.0459 3 
4.30425 12.923 10.0454 3 
7.17526 12.9227 10.0447 3 
7.17554 15.7941 10.045 3 
5.73933 14.3583 11.4802 3 
8.61082 14.3583 8.60889 3 
11.4811 14.358 8.60794 3 
10.0457 12.9226 10.0437 3 
10.0457 15.7936 10.0439 3 
8.61012 14.3581 11.4796 3 
11.4807 14.358 11.4787 3 
14.3519 14.3581 8.60751 3 
12.9165 12.9225 10.043 3 
15.7874 12.9226 10.0429 3 
12.9162 15.7936 10.0432 3 
15.7868 15.7939 10.0432 3 
14.3515 14.3581 11.4783 3 
17.2226 14.3584 8.60781 3 
20.0935 14.3591 8.60838 3 
18.6586 12.9228 10.043 3 
18.6577 15.7944 10.0436 3 
17.2226 14.3583 11.4784 3 
20.0939 14.3586 11.4786 3 
22.9651 14.36 8.60878 3 
21.5301 12.923 10.043 3 
21.529 15.7951 10.0441 3 
22.9653 14.359 11.4789 3 
24.4008 15.7956 10.0445 3 
24.4014 12.9236 10.0432 3 
28.7106 14.3613 8.61086 3 
25.8375 14.361 8.60948 3 
28.7084 14.3592 11.4798 3 
27.273 12.9239 10.044 3 
27.2732 15.796 10.0452 3 
25.8367 14.3592 11.4793 3 
2.87143 17.2333 8.61271 3 
2.87045 20.1043 8.61205 3 
1.43368 18.6678 10.0465 3 
2.86881 17.2306 11.4807 3 
2.86901 20.1022 11.4809 3 
5.74155 17.2312 8.61109 3 
5.74181 20.1033 8.61132 3 
4.30563 18.6672 10.0465 3 
7.17594 18.6659 10.0454 3 
5.73986 17.2298 11.4805 3 
5.74028 20.1016 11.4808 3 
8.61105 17.2299 8.60937 3 
11.4809 17.2294 8.60836 3 
8.61124 20.1016 8.60972 3 
11.4807 20.101 8.60874 3 
10.0457 18.6651 10.0443 3 
8.61027 17.2293 11.4798 3 
11.4805 17.2292 11.4789 3 
8.61047 20.1009 11.48 3 
11.4803 20.1007 11.479 3 
14.3513 17.2296 8.60805 3 
14.3508 20.1013 8.60843 3 
12.9158 18.6651 10.0435 3 
15.7861 18.6656 10.0435 3 
14.3509 17.2294 11.4784 3 
14.3505 20.1011 11.4786 3 
17.2216 17.2304 8.6086 3 
20.0924 17.2316 8.60964 3 
17.2212 20.1021 8.60892 3 
20.0923 20.103 8.60972 3 
18.657 18.6664 10.0441 3 
17.2218 17.2299 11.4785 3 
20.0931 17.2304 11.479 3 
17.2213 20.1015 11.4787 3 
20.0927 20.102 11.4792 3 
22.9641 17.2326 8.61051 3 
22.9642 20.1037 8.61045 3 
21.5284 18.667 10.0448 3 
22.9648 17.2308 11.4795 3 
22.9646 20.1023 11.4797 3 
24.4005 18.6675 10.0454 3 
28.709 20.1025 11.4806 3 
28.7097 20.1044 8.61178 3 
28.7104 17.2338 8.61232 3 
25.8369 17.2334 8.61134 3 
25.8367 20.1042 8.61116 3 
28.7089 17.231 11.4804 3 
27.273 18.6678 10.046 3 
25.8368 17.231 11.4799 3 
25.8368 20.1025 11.4802 3 
2.86952 22.9735 8.61072 3 
1.43314 24.4079 10.0456 3 
1.43333 21.5384 10.0461 3 
2.86893 22.9729 11.4807 3 
5.74098 22.9732 8.61046 3 
4.30499 24.408 10.0457 3 
7.17586 24.4079 10.0453 3 
4.30525 21.5381 10.0462 3 
7.17605 21.5374 10.0455 3 
5.74024 22.9727 11.4806 3 
8.61113 22.9727 8.60957 3 
11.4807 22.9724 8.60879 3 
10.0457 24.408 10.0444 3 
10.0458 21.5367 10.0444 3 
8.61055 22.9724 11.48 3 
11.4803 22.9723 11.4791 3 
14.3507 22.9725 8.60842 3 
14.3503 22.9724 11.4786 3 
12.9155 21.5367 10.0437 3 
15.7858 21.537 10.0437 3 
12.9155 24.408 10.0437 3 
15.7859 24.4079 10.0436 3 
17.2214 22.9727 8.60862 3 
20.0927 22.973 8.60907 3 
17.2212 22.9726 11.4787 3 
20.0927 22.9728 11.4791 3 
18.6569 24.4079 10.0439 3 
18.6568 21.5375 10.0441 3 
22.9645 22.9732 8.60955 3 
24.4006 24.4079 10.0448 3 
22.9646 22.9729 11.4796 3 
21.5286 24.4079 10.0444 3 
21.5285 21.5379 10.0447 3 
24.4006 21.5382 10.0452 3 
28.7092 22.9735 8.61046 3 
25.8368 22.9734 8.61001 3 
28.709 22.973 11.4804 3 
27.273 21.5384 10.0457 3 
27.2729 24.4079 10.0452 3 
25.8368 22.973 11.48 3 
2.87044 28.7115 8.61193 3 
2.86951 25.8424 8.61066 3 
1.43334 27.2774 10.046 3 
2.86896 25.843 11.4807 3 
5.74098 25.8427 8.61037 3 
7.17605 27.2784 10.0454 3 
5.74024 25.8432 11.4806 3 
4.30528 27.2777 10.0461 3 
8.61113 25.8432 8.60954 3 
11.4807 25.8435 8.60875 3 
10.0458 27.2791 10.0444 3 
8.61054 25.8435 11.48 3 
11.4803 25.8436 11.479 3 
14.3508 25.8434 8.60838 3 
12.9156 27.2792 10.0437 3 
15.7859 27.2788 10.0436 3 
14.3504 25.8435 11.4786 3 
17.2214 25.8431 8.60854 3 
20.0927 25.8428 8.609 3 
20.0927 25.843 11.4791 3 
18.6568 27.2783 10.044 3 
17.2212 25.8432 11.4787 3 
22.9645 25.8426 8.6095 3 
22.9646 25.8429 11.4796 3 
24.4005 27.2776 10.0452 3 
21.5285 27.2778 10.0446 3 
28.7096 28.7113 8.61165 3 
28.7092 25.8424 8.61042 3 
28.709 25.8429 11.4804 3 
25.8367 28.7116 8.61102 3 
25.8368 25.8425 8.61 3 
25.8368 25.8429 11.48 3 
27.2729 27.2775 10.0457 3 
1.43275 1.43752 12.9153 3 
1.43286 1.43739 15.7847 3 
2.86803 2.87377 14.3503 3 
2.86853 0.00218341 14.3502 3 
4.30414 1.43801 12.9155 3 
7.17478 1.4386 12.9152 3 
5.73891 2.87432 14.3504 3 
4.30372 1.43821 15.7853 3 
7.17407 1.43873 15.7854 3 
5.73937 0.00273536 14.3504 3 
10.045 1.4388 12.9145 3 
8.60953 0.00304567 14.3499 3 
11.4796 2.87434 14.3492 3 
10.0441 1.43862 15.7847 3 
8.60939 2.87453 14.3501 3 
11.4794 0.00280817 14.3491 3 
12.9151 1.43856 12.9137 3 
15.7857 1.438 12.9134 3 
12.9139 1.43788 15.7836 3 
15.7842 1.43657 15.7825 3 
14.3496 0.00209191 14.3482 3 
14.35 2.87378 14.3484 3 
18.657 1.43753 12.9136 3 
17.2209 2.87302 14.3481 3 
18.656 1.43598 15.7825 3 
17.2207 0.00154478 14.3481 3 
20.0928 2.87267 14.3485 3 
20.0927 0.00129881 14.3484 3 
21.5288 1.43726 12.914 3 
24.4008 1.43719 12.9145 3 
22.9649 2.87266 14.349 3 
21.5286 1.43599 15.783 3 
24.4011 1.43628 15.7836 3 
22.9649 0.00130873 14.3488 3 
27.2729 1.43725 12.9149 3 
25.837 0.00144588 14.3493 3 
28.7086 2.87324 14.3499 3 
27.2733 1.43673 15.7841 3 
25.8369 2.87286 14.3494 3 
28.709 0.00174163 14.3498 3 
1.43217 4.30916 12.9152 3 
1.43142 7.18064 12.915 3 
2.86729 5.74529 14.3504 3 
1.4321 4.30927 15.7852 3 
1.4312 7.18079 15.7857 3 
4.30353 4.30965 12.9154 3 
4.30298 7.18089 12.9153 3 
7.17447 4.31 12.9151 3 
7.17421 7.18104 12.9151 3 
5.73845 5.74558 14.3505 3 
4.30307 4.30985 15.7856 3 
4.30248 7.18102 15.7859 3 
7.17373 4.31014 15.7856 3 
7.17347 7.18113 15.7858 3 
10.045 4.31012 12.9144 3 
10.045 7.18106 12.9144 3 
10.0442 4.31004 15.785 3 
10.0442 7.18105 15.7852 3 
11.4798 5.74555 14.3493 3 
8.60926 5.74566 14.3501 3 
15.7863 4.30959 12.9134 3 
12.9154 4.30997 12.9137 3 
12.9157 7.18098 12.9136 3 
15.7869 7.18084 12.9134 3 
12.9143 4.30958 15.7839 3 
15.7848 4.30883 15.7831 3 
12.9146 7.18084 15.7841 3 
15.7855 7.18056 15.7835 3 
14.3505 5.74525 14.3486 3 
18.6576 4.30913 12.9136 3 
18.6583 7.18062 12.9137 3 
17.2217 5.74488 14.3485 3 
20.0932 5.74438 14.349 3 
18.6561 4.30778 15.7829 3 
18.6572 7.18018 15.7839 3 
21.5292 4.30882 12.914 3 
24.4008 4.30873 12.9144 3 
21.5297 7.18036 12.914 3 
24.4008 7.18026 12.9144 3 
21.5285 4.30762 15.7837 3 
24.4008 4.30801 15.7844 3 
21.5287 7.17958 15.7849 3 
24.4002 7.17989 15.7856 3 
22.9649 5.7443 14.3495 3 
27.2725 4.30882 12.9148 3 
27.272 7.18036 12.9147 3 
28.7078 5.74494 14.3501 3 
27.2727 4.3086 15.7848 3 
27.2716 7.18052 15.7858 3 
25.8364 5.74455 14.3499 3 
1.43108 10.0517 12.915 3 
2.86677 8.61635 14.3504 3 
1.43083 10.0518 15.7858 3 
2.86673 11.4872 14.3504 3 
4.30273 10.0518 12.9152 3 
7.1741 10.0518 12.9151 3 
5.73812 11.4872 14.3505 3 
4.30224 10.0518 15.786 3 
7.17337 10.0518 15.7859 3 
5.73816 8.61646 14.3505 3 
10.045 10.0518 12.9144 3 
8.60918 8.61646 14.3501 3 
8.60917 11.4871 14.3501 3 
11.4799 11.4872 14.3493 3 
10.0442 10.0518 15.7852 3 
11.4799 8.6164 14.3493 3 
12.9158 10.0517 12.9137 3 
15.7871 10.0518 12.9135 3 
14.3508 11.4872 14.3487 3 
14.3508 8.6163 14.3487 3 
12.9147 10.0518 15.7842 3 
15.7858 10.0518 15.7836 3 
18.6586 10.0518 12.9137 3 
17.2223 8.6162 14.3487 3 
20.0939 8.61604 14.3494 3 
18.6577 10.0518 15.7842 3 
17.2223 11.4874 14.3488 3 
20.0939 11.4875 14.3494 3 
21.53 10.0518 12.9141 3 
24.4008 10.0517 12.9144 3 
22.9649 8.61588 14.35 3 
21.5292 10.0518 15.7854 3 
24.3997 10.0517 15.7863 3 
22.965 11.4876 14.35 3 
28.7072 11.4873 14.3504 3 
27.2717 10.0517 12.9147 3 
28.7072 8.61621 14.3504 3 
25.8359 8.61605 14.3504 3 
27.2711 10.0517 15.7861 3 
25.8359 11.4874 14.3504 3 
1.43138 12.9229 12.915 3 
1.43214 15.7944 12.9151 3 
1.43117 12.9228 15.7857 3 
1.43205 15.7944 15.7851 3 
2.86722 14.3583 14.3503 3 
4.30348 15.7939 12.9153 3 
4.30293 12.9227 12.9153 3 
7.17416 12.9226 12.9151 3 
7.1744 15.7936 12.9151 3 
5.73839 14.358 14.3505 3 
4.30243 12.9226 15.7859 3 
4.303 15.7938 15.7855 3 
7.17347 12.9225 15.7858 3 
7.17371 15.7935 15.7856 3 
10.045 12.9225 12.9144 3 
10.045 15.7935 12.9144 3 
11.4798 14.358 14.3492 3 
8.60922 14.3579 14.3501 3 
10.0442 12.9225 15.7851 3 
10.0442 15.7935 15.7849 3 
12.9158 12.9226 12.9137 3 
15.7869 12.9227 12.9135 3 
12.9155 15.7936 12.9137 3 
15.7863 15.794 12.9134 3 
14.3505 14.3583 14.3485 3 
12.9147 12.9227 15.7841 3 
15.7856 12.923 15.7835 3 
12.9143 15.794 15.7838 3 
15.7849 15.7948 15.783 3 
18.6583 12.9229 12.9137 3 
18.6576 15.7945 12.9136 3 
20.0933 14.3592 14.349 3 
18.6572 12.9234 15.7839 3 
18.6561 15.7959 15.7829 3 
17.2218 14.3588 14.3485 3 
21.5297 12.9232 12.9141 3 
21.5292 15.7947 12.914 3 
24.4008 15.7948 12.9144 3 
24.4008 12.9232 12.9144 3 
21.5287 12.924 15.7849 3 
21.5285 15.796 15.7837 3 
24.4008 15.7956 15.7843 3 
24.4002 12.9236 15.7856 3 
22.9649 14.3593 14.3495 3 
27.272 12.9231 12.9147 3 
27.2725 15.7948 12.9148 3 
28.7078 14.3586 14.3501 3 
27.2716 12.923 15.7857 3 
27.2727 15.795 15.7847 3 
25.8364 14.359 14.3499 3 
1.43269 18.6662 12.9153 3 
1.43282 18.6663 15.7846 3 
2.868 17.2299 14.3502 3 
2.86849 20.1015 14.3501 3 
4.30412 18.6657 12.9155 3 
7.17476 18.6651 12.9152 3 
4.30367 18.6655 15.7852 3 
7.17404 18.6649 15.7853 3 
5.73933 20.101 14.3503 3 
5.73887 17.2293 14.3503 3 
10.0449 18.6648 12.9145 3 
8.60952 20.1006 14.3499 3 
8.60936 17.2291 14.35 3 
10.0441 18.665 15.7847 3 
11.4796 17.2293 14.3491 3 
11.4794 20.1009 14.349 3 
14.3495 20.1016 14.3481 3 
12.9151 18.6651 12.9136 3 
15.7857 18.6657 12.9133 3 
14.35 17.2298 14.3483 3 
12.9139 18.6658 15.7835 3 
15.7841 18.6671 15.7824 3 
18.657 18.6661 12.9135 3 
17.2209 17.2306 14.3481 3 
20.0926 20.1024 14.3483 3 
18.656 18.6677 15.7824 3 
20.0928 17.231 14.3484 3 
17.2207 20.1022 14.348 3 
21.5288 18.6664 12.914 3 
24.4008 18.6665 12.9145 3 
22.9649 17.2309 14.349 3 
22.9649 20.1024 14.3488 3 
21.5286 18.6677 15.7829 3 
24.4011 18.6674 15.7835 3 
27.2728 18.6664 12.9149 3 
25.837 20.1023 14.3492 3 
28.709 20.102 14.3497 3 
27.2733 18.6669 15.784 3 
28.7086 17.2304 14.3498 3 
25.8369 17.2307 14.3494 3 
1.43289 21.5374 12.9153 3 
1.43291 24.4079 12.9153 3 
2.86859 22.9726 14.3502 3 
1.43291 21.5375 15.7847 3 
1.43285 24.4079 15.785 3 
4.30436 21.5371 12.9155 3 
7.17504 21.5367 12.9153 3 
4.3044 24.4079 12.9155 3 
7.17508 24.4079 12.9152 3 
4.30399 21.537 15.7851 3 
7.17432 21.5365 15.7851 3 
7.17438 24.4078 15.7852 3 
4.304 24.4078 15.7853 3 
5.73952 22.9723 14.3503 3 
10.045 24.4079 12.9145 3 
10.045 21.5365 12.9145 3 
10.0441 21.5366 15.7845 3 
10.0442 24.4079 15.7846 3 
11.4794 22.9724 14.349 3 
8.60966 22.9722 14.3499 3 
15.7854 24.4079 12.9134 3 
15.7854 21.5371 12.9134 3 
12.9148 24.4079 12.9137 3 
12.9148 21.5367 12.9137 3 
12.9138 21.5373 15.7835 3 
15.7845 21.538 15.7828 3 
15.7848 24.4079 15.7833 3 
12.914 24.4079 15.7837 3 
14.3496 22.9726 14.3483 3 
18.6568 24.4079 12.9136 3 
18.6568 21.5374 12.9136 3 
20.0926 22.9729 14.3486 3 
18.6563 21.5383 15.7829 3 
18.6565 24.4079 15.7834 3 
17.2208 22.9728 14.3482 3 
21.5286 24.4079 12.9141 3 
24.4008 24.4079 12.9145 3 
21.5287 21.5375 12.9141 3 
24.4008 21.5376 12.9145 3 
22.9648 22.973 14.349 3 
21.5287 21.5383 15.7833 3 
24.4011 21.5382 15.7837 3 
24.401 24.4079 15.7842 3 
21.5287 24.4079 15.7838 3 
28.709 22.9728 14.3498 3 
27.273 24.4079 12.9149 3 
27.2729 21.5376 12.915 3 
27.2732 21.5379 15.7842 3 
27.2731 24.4079 15.7846 3 
25.837 22.9729 14.3494 3 
1.43292 27.2784 12.9153 3 
1.43298 27.2783 15.7848 3 
2.86865 25.8432 14.3502 3 
4.30439 27.2787 12.9156 3 
7.17503 27.2791 12.9153 3 
4.30404 27.2788 15.7852 3 
7.17432 27.2792 15.7852 3 
5.73954 25.8434 14.3503 3 
10.0449 27.2793 12.9145 3 
8.60963 25.8436 14.3499 3 
10.0441 27.2791 15.7846 3 
11.4794 25.8434 14.349 3 
12.9149 27.2791 12.9137 3 
15.7855 27.2787 12.9134 3 
12.9138 27.2784 15.7835 3 
15.7845 27.2777 15.7829 3 
14.3496 25.8431 14.3484 3 
18.6568 27.2784 12.9136 3 
20.0926 25.8428 14.3486 3 
18.6564 27.2774 15.783 3 
17.2208 25.8429 14.3483 3 
21.5287 27.2782 12.9141 3 
24.4008 27.2781 12.9145 3 
22.9648 25.8428 14.349 3 
21.5287 27.2774 15.7834 3 
24.4011 27.2776 15.7839 3 
28.709 25.843 14.3499 3 
27.273 27.2782 12.915 3 
25.837 25.8429 14.3494 3 
27.2732 27.2779 15.7843 3 