ITEM: TIMESTEP
45042
ITEM: NUMBER OF ATOMS
18
ITEM: BOX BOUNDS pp pp pp
0.0000000000000000e+00 2.8712000000000000e+01
0.0000000000000000e+00 2.8712000000000000e+01
0.0000000000000000e+00 2.8712000000000000e+01
ITEM: ATOMS x y z c_cna 
24.4055 10.0519 1.53286 5 
25.9869 8.21429 0.144513 5 
27.2211 10.0519 1.37883 5 
25.9869 11.8895 0.144484 5 
21.5807 10.0521 24.4499 5 
24.3963 10.052 24.2959 5 
24.4009 7.21774 27.2703 5 
23.0021 8.62956 28.6691 5 
22.8149 8.21439 25.6841 5 
23.6519 10.0521 26.521 5 
21.4267 10.052 27.2657 5 
22.8149 11.8896 25.6843 5 
23.0022 11.4744 28.6692 5 
25.1499 10.052 28.0197 5 
25.7996 8.62957 25.8715 5 
27.3751 10.0519 27.275 5 
25.7997 11.4744 25.8717 5 
24.4009 12.8862 27.2705 5 
ITEM: TIMESTEP
45043
ITEM: NUMBER OF ATOMS
18
ITEM: BOX BOUNDS pp pp pp
0.0000000000000000e+00 2.8712000000000000e+01
0.0000000000000000e+00 2.8712000000000000e+01
0.0000000000000000e+00 2.8712000000000000e+01
ITEM: ATOMS x y z c_cna 
24.4055 10.0519 1.53286 5 
25.9869 8.21429 0.144513 5 
27.2211 10.0519 1.37883 5 
25.9869 11.8895 0.144484 5 
21.5807 10.0521 24.4499 5 
24.3963 10.052 24.2959 5 
24.4009 7.21774 27.2703 5 
23.0021 8.62956 28.6691 5 
22.8149 8.21439 25.6841 5 
23.6519 10.0521 26.521 5 
21.4267 10.052 27.2657 5 
22.8149 11.8896 25.6843 5 
23.0022 11.4744 28.6692 5 
25.1499 10.052 28.0197 5 
25.7996 8.62957 25.8715 5 
27.3751 10.0519 27.275 5 
25.7997 11.4744 25.8717 5 
24.4009 12.8862 27.2705 5 
