ITEM: TIMESTEP
45000
ITEM: NUMBER OF ATOMS
2001
ITEM: BOX BOUNDS pp pp pp
0.0000000000000000e+00 2.8712000000000000e+01
0.0000000000000000e+00 2.8712000000000000e+01
0.0000000000000000e+00 2.8712000000000000e+01
ITEM: ATOMS x y z 
1.47062 1.35835 1.36486 
2.7961 2.79193 2.97995 
0.185557 2.73592 2.61836 
3.01446 0.0307291 3.0982 
2.90646 2.79318 0.250522 
4.3398 1.38487 1.54471 
7.16023 1.36785 1.54989 
5.71205 2.75837 2.98559 
5.74788 2.68968 0.0427504 
5.713 0.163781 0.135468 
10.0102 1.4251 1.41629 
8.57325 2.89256 2.86314 
11.4325 2.97857 2.84405 
11.3929 0.158078 2.75751 
8.57158 0.0868036 2.92561 
8.65762 2.88983 0.137907 
12.9664 1.41394 1.37405 
15.9695 1.44028 1.42186 
14.4502 2.93843 2.86888 
14.4001 0.172377 2.93479 
18.6927 1.60452 1.54034 
17.2385 2.82642 2.78796 
20.3187 3.07852 3.01099 
17.3075 0.00184953 2.87075 
17.2734 0.0882232 0.0355447 
20.1811 0.080112 2.97034 
20.2228 0.0149427 0.159089 
21.6391 1.56796 1.46233 
22.9659 2.91711 2.86829 
24.3148 1.29024 1.22366 
28.5746 0.134867 2.93184 
27.3694 1.47892 1.40965 
25.6393 2.82592 2.79465 
25.7471 0.175618 2.82133 
1.54046 4.27877 1.57869 
1.41421 7.2902 1.52156 
2.86579 5.72571 2.89164 
0.00387947 5.72579 2.79813 
4.47489 4.14028 1.53589 
7.16081 4.20239 1.3792 
4.28062 6.9985 1.55855 
7.12027 7.29546 1.37884 
5.82014 5.56084 2.86116 
5.7308 5.61215 0.0271425 
9.99204 4.21545 1.37452 
9.98936 6.87201 1.55172 
8.46624 5.61997 2.99034 
11.4034 5.51881 2.93983 
11.4641 5.5528 0.0456494 
15.9251 4.25601 1.24216 
12.9971 4.22213 1.54696 
12.7699 7.08682 1.49082 
15.8219 6.97604 1.34056 
14.4577 5.71922 2.70534 
18.7199 4.26779 1.47744 
18.5782 7.1447 1.45643 
17.2424 5.81113 2.76683 
20.0578 5.74967 2.69054 
24.4408 4.28628 1.40442 
21.6357 4.37379 1.37941 
21.6065 7.21096 1.31722 
22.9194 5.76558 2.77195 
24.2604 7.2519 1.373 
27.1565 4.26342 1.33323 
27.2145 7.11261 1.61224 
25.796 5.57261 2.86632 
1.44762 9.90468 1.41085 
1.38475 10.0836 4.09652 
3.15127 8.5335 2.86687 
2.70608 11.551 2.78534 
2.7967 11.3456 0.240687 
2.99391 8.68002 0.0875116 
4.34623 9.9771 1.52975 
7.21284 10.0361 1.55342 
5.63978 8.59778 2.87589 
5.6193 11.5367 3.11349 
10.1048 10.0468 1.57156 
8.58723 8.54361 2.82152 
11.4421 8.47885 2.87543 
8.4454 11.4218 2.87468 
11.5119 11.3691 2.87768 
11.4841 11.3755 0.0408296 
11.4568 8.63148 0.0768505 
8.56213 11.5764 0.328687 
8.52758 8.55222 0.0151047 
12.9876 9.97047 1.50124 
15.8062 9.97991 1.32771 
14.4193 8.54651 2.98901 
14.3327 11.5632 3.02796 
14.3736 11.5318 0.115357 
14.4193 8.48087 0.124718 
18.6916 10.0963 1.48538 
17.1929 8.68409 2.85718 
20.0856 8.52036 2.78197 
17.1633 11.4162 2.86953 
20.124 11.5509 2.75933 
17.3408 11.7521 0.000664329 
21.4946 10.1933 1.30302 
22.8889 8.74112 2.76597 
22.8463 11.7924 2.80644 
24.3615 10.4052 1.77681 
22.8271 8.84192 0.0382351 
28.4679 8.64973 2.82114 
25.9079 8.39195 0.102702 
28.6724 11.4895 2.84629 
27.2928 10.1988 1.57751 
25.8709 8.71386 2.88697 
25.8378 11.6759 3.01334 
26.1003 11.7927 0.42453 
1.29113 13.0099 1.36259 
1.43065 15.992 1.39395 
2.7174 14.5401 3.02344 
0.000767514 14.4241 2.9599 
2.82204 14.3409 0.039175 
4.21757 15.958 1.50376 
4.29759 12.8903 1.43497 
6.86968 12.8982 1.61648 
6.98132 15.7347 1.47495 
5.59165 14.4281 2.80811 
5.71945 14.3451 0.125013 
10.1156 12.8991 1.74376 
10.051 15.8989 1.52853 
8.44502 14.2279 3.00662 
11.4186 14.4289 3.04733 
8.65592 14.3888 0.188807 
11.4046 14.397 0.122536 
12.839 13.0782 1.58177 
15.8728 12.7966 1.46363 
12.9081 15.7225 1.56829 
15.8036 15.7389 1.38 
14.506 14.3952 2.95168 
18.6179 13.1789 1.43611 
18.6473 15.7104 1.48624 
17.2 14.2683 2.95433 
20.2597 14.4122 2.87811 
21.5708 13.0055 1.33976 
21.6683 15.8882 1.21746 
22.9509 14.4185 2.89993 
24.3783 13.0081 1.41167 
24.4215 16.0503 1.43014 
27.3802 13.1911 1.52638 
27.4646 15.8451 1.33055 
25.8795 14.55 2.93486 
25.8729 14.3237 0.0452242 
1.3203 18.7011 1.31912 
2.80865 17.4503 2.91172 
2.74842 20.1692 2.83825 
0.0311137 20.2039 3.00407 
3.02035 19.9959 0.012613 
4.26555 18.7219 1.46029 
7.1155 18.5672 1.46971 
5.70379 17.2687 2.94399 
5.80549 20.1071 2.64667 
5.834 17.2944 0.0707392 
10.1311 18.5064 1.51215 
8.59807 17.152 2.81789 
11.5246 17.3484 2.88061 
8.50356 19.8746 2.73311 
11.2749 20.0279 2.93133 
8.60824 17.224 0.0165184 
8.63536 20.0314 0.113462 
11.3855 20.0277 0.0469936 
12.8214 18.5971 1.42708 
15.6812 18.6452 1.50233 
14.3449 17.2906 2.95868 
14.0527 20.0799 2.87496 
14.4182 17.1636 0.133946 
18.6658 18.6542 1.30945 
17.2603 17.242 2.7777 
19.9276 17.1422 2.79145 
17.1482 20.1357 2.89431 
19.9694 20.0466 2.6501 
17.1891 19.9467 0.0837299 
17.1067 17.2242 0.0740042 
20.0461 17.2183 0.0651386 
21.6071 18.7402 1.48553 
24.5761 18.6852 1.3977 
23.0777 17.2554 3.18103 
22.9124 20.1408 2.89552 
23.2112 17.3088 0.0947756 
22.9719 20.1663 0.0945988 
28.5672 17.3395 2.88329 
27.342 18.6321 1.33648 
25.9314 17.3976 2.73437 
25.7983 20.2855 2.98683 
25.9525 20.0966 0.0572341 
1.31821 21.4936 1.40749 
2.9685 22.8851 2.82588 
1.48664 24.4395 1.50874 
0.0423496 23.1817 3.00432 
0.0924456 23.0903 0.162731 
2.7896 22.9183 0.00801033 
4.30822 24.2448 1.55805 
4.29902 21.4737 1.39276 
7.23564 21.408 1.36414 
5.82847 22.9759 2.89315 
7.28879 24.5124 1.39991 
10.089 21.5799 1.39572 
8.47469 22.8573 2.83805 
11.5021 22.9083 2.65985 
9.9785 24.3933 1.33169 
11.4765 22.8875 0.0333605 
12.9575 21.4057 1.29314 
15.8779 21.4733 1.38185 
14.2522 22.757 2.6456 
13.0177 24.4161 4.09549 
12.9571 24.4782 1.33213 
15.7442 24.4977 1.49485 
18.5528 21.5689 1.30554 
16.9192 22.9409 2.94247 
19.9069 22.8581 2.98022 
18.4113 24.4142 1.35389 
20.0275 22.9864 0.154855 
17.1194 22.9588 0.101197 
21.408 21.5577 1.51588 
24.2618 21.4602 1.42286 
21.4134 24.2527 1.4619 
22.7925 22.7442 2.90897 
24.1905 24.3717 1.45251 
22.9171 22.9875 0.0111289 
27.1587 21.4341 1.65185 
25.8139 22.9987 2.89252 
27.4245 24.5336 1.58916 
25.8082 22.9658 0.167556 
1.33719 27.2236 1.67085 
2.92632 25.8769 2.94812 
2.91343 25.9522 0.280389 
0.0584947 25.864 0.0115954 
5.647 28.5204 3.07892 
4.36667 27.2288 1.52504 
7.18313 27.4022 1.45403 
5.67433 25.836 2.94034 
5.89384 25.9028 0.109488 
10.0017 27.4078 1.52294 
8.58331 25.8474 2.84708 
11.5341 25.8385 2.76323 
11.4614 25.8599 0.168078 
8.64638 26.0283 0.0496291 
12.8142 27.4989 1.53103 
15.601 27.3443 1.39213 
14.5179 26.0274 2.80827 
18.6246 27.1025 1.57038 
17.041 25.9037 2.77812 
20.0433 25.6681 2.97384 
19.9447 25.87 0.0920023 
23.0617 28.6738 2.79871 
21.3621 27.2182 1.65233 
22.7383 25.8635 2.96318 
24.4082 27.2511 1.37923 
23.0188 28.6158 0.072663 
23.0061 25.8728 0.178887 
28.5781 25.9034 2.94632 
27.2804 27.3249 1.42012 
25.8251 25.924 2.90387 
25.9789 25.7508 0.136529 
1.43263 1.34918 4.30035 
1.42524 1.58717 7.09969 
2.856 2.86844 5.81576 
0.13299 3.0519 5.5031 
2.78842 0.0181633 5.71745 
4.36506 1.40533 4.3772 
7.12831 1.57402 4.36568 
4.39669 1.39084 7.14449 
7.1766 1.48882 7.03801 
5.64696 2.81176 5.76477 
10.1473 1.45368 4.22554 
10.0085 1.51627 6.98829 
8.58181 2.8254 5.59882 
11.5204 2.97554 5.68653 
11.5187 0.105841 5.74257 
8.47089 0.0669222 5.77329 
12.9127 1.43178 4.39184 
15.9234 1.2652 4.47078 
12.7797 1.41079 7.2999 
15.7203 1.468 7.22409 
14.352 2.78771 5.87426 
18.6444 1.44906 4.32289 
18.5709 1.34764 7.27142 
17.2647 2.76171 5.7573 
20.0181 2.88844 5.84846 
20.0591 0.0562034 5.74998 
21.5786 1.55989 4.35802 
24.4763 1.55394 4.28029 
21.4636 1.62847 7.20085 
24.2534 1.47192 7.38644 
23.1376 2.96973 5.60874 
22.9978 0.0202837 5.70189 
21.7122 4.07747 7.2606 
27.2722 1.62745 4.27372 
27.406 1.42348 7.15319 
26.0363 2.89492 5.57861 
25.7847 0.13348 5.61946 
1.42056 4.37555 4.252 
1.28169 7.25434 4.24753 
1.42445 4.39758 7.06932 
1.31481 7.28843 7.00894 
2.85749 5.73446 5.83726 
4.08779 7.22812 7.1897 
4.24784 7.05475 4.39262 
7.13557 4.16162 4.47996 
4.25437 4.29979 4.39118 
7.00519 7.08033 4.18632 
4.40936 4.31214 7.30911 
7.03094 4.52989 7.11874 
5.53447 5.77106 5.66965 
7.1302 7.1538 7.31176 
10.0005 4.26501 4.41765 
9.78854 7.17299 4.26598 
10.0425 4.44361 7.09563 
8.56667 5.76781 5.74252 
10.0535 7.17165 7.23303 
11.6681 5.72985 5.80942 
15.7987 4.37302 4.27011 
12.9167 4.2164 4.22315 
12.7503 7.18585 4.21704 
15.7535 7.21162 4.33077 
13.2018 4.25969 7.15498 
15.6663 4.3884 7.15563 
13.05 7.14789 7.1436 
14.3165 5.80278 5.58545 
15.8236 7.068 7.17229 
18.7356 4.23831 4.24978 
18.8219 7.17368 4.31848 
18.5574 4.27657 7.32957 
17.1659 5.65779 5.51116 
18.6319 6.97216 7.17426 
20.144 5.64719 5.54589 
21.6535 4.34719 4.45805 
24.3824 4.32132 4.46178 
21.5309 7.12155 4.28258 
24.3731 7.33971 4.24325 
24.6099 4.26683 7.06045 
21.5718 7.16503 7.11593 
23.0989 5.78912 5.44251 
24.3445 7.26044 7.00881 
27.3874 4.36956 4.24333 
27.2663 7.01229 4.29328 
28.6477 5.76017 5.64746 
27.298 4.22313 7.05213 
25.981 5.70229 5.78211 
27.3646 7.24149 7.14925 
1.59798 10.2053 7.27588 
2.75343 8.65287 5.8875 
2.76018 11.5176 5.66054 
4.10702 9.88381 4.418 
7.02702 9.94743 4.46165 
4.17454 10.1238 7.11184 
5.55449 8.54217 5.64857 
7.02907 9.92269 7.1394 
5.57971 11.5351 5.76205 
10.2065 9.99681 4.55286 
8.55374 8.52327 5.90641 
10.0707 10.0643 7.30997 
11.4239 8.60269 5.71611 
8.673 11.3054 5.84086 
11.5664 11.4635 5.65664 
12.9964 9.88721 4.28839 
15.8824 9.97566 4.53439 
12.8384 10.0146 7.40482 
14.4627 8.42402 5.75914 
15.8281 9.99059 7.2233 
14.3963 11.4265 5.8208 
18.8194 10.1095 4.25473 
17.3328 8.38766 5.78161 
18.7351 9.96199 6.95574 
20.3545 8.49507 5.72465 
17.3118 11.3398 5.60912 
20.153 11.4756 5.70312 
21.5777 10.1437 4.17856 
24.4122 10.0894 4.2835 
21.6864 10.1159 7.19422 
22.8383 8.71864 5.76924 
23.0166 11.4469 5.68688 
24.3161 10.1028 7.06006 
27.2279 10.0605 4.41299 
28.7066 11.6206 5.73515 
28.6489 8.79021 5.73125 
25.8007 8.61964 5.66285 
27.1223 9.94754 7.18198 
26.0217 11.5443 5.74716 
1.27526 13.0923 4.20385 
1.18458 15.7776 4.32059 
4.08916 12.9082 4.36913 
1.5811 13.0458 7.05457 
1.48331 16.0385 7.10229 
2.77916 14.608 5.58799 
0.0699815 14.4524 5.78794 
4.25466 15.8146 4.22075 
6.99818 12.8247 4.35462 
7.13658 15.7961 4.45734 
4.18604 15.9005 7.02715 
4.32391 12.9611 7.05209 
7.3028 12.9062 7.15124 
5.57991 14.4991 5.73732 
7.07259 15.7813 7.27176 
10.0325 12.7113 4.28672 
9.85729 15.8071 4.29124 
10.1994 12.9211 7.21309 
8.57158 14.2834 5.9605 
9.90174 15.9522 6.88727 
11.5378 14.4292 5.78192 
12.8688 12.8951 4.39839 
15.777 12.7728 4.48143 
13.0265 15.7935 4.30513 
15.7407 15.6611 4.46453 
12.8353 12.8306 7.2319 
15.7296 12.7295 7.27656 
12.9086 15.8428 7.1907 
14.3092 14.1545 5.74164 
15.8602 15.7133 7.2509 
18.6957 13.0485 4.30395 
18.6415 15.7458 4.36759 
18.7631 12.8567 6.97318 
17.193 14.0893 5.67308 
18.6982 15.7887 7.0678 
20.2305 14.4504 5.72058 
21.5418 13.0459 4.24553 
21.6155 15.9022 4.43985 
24.3524 13.0736 4.36292 
24.4516 15.7598 4.31617 
21.5733 12.9914 7.03044 
21.574 16.009 7.05615 
22.9512 14.4432 5.86946 
24.3422 12.842 7.10485 
24.4233 15.9206 7.27076 
27.1577 12.9759 4.36186 
27.2158 15.7878 4.24474 
27.5383 12.9439 7.13759 
25.7574 14.5847 5.82749 
27.2729 15.9691 7.11956 
1.28548 18.6939 4.27015 
1.50315 18.4987 7.2475 
2.80263 17.2927 5.56701 
2.84911 20.0268 5.66918 
0.0561635 20.0706 5.80121 
4.22071 18.9532 4.33162 
7.06341 18.6575 4.38664 
4.21057 18.5833 7.22331 
5.75626 17.0752 5.87746 
7.09296 18.7105 7.19247 
5.54307 20.2631 5.72129 
9.88932 18.7374 4.41939 
8.36807 17.1943 5.87518 
9.83423 18.5465 7.14674 
11.4868 17.2487 5.68859 
8.50169 20.2471 5.82192 
11.3709 20.1181 5.56401 
12.8311 18.4996 4.36855 
15.6497 18.6476 4.3928 
12.8027 18.7051 7.1871 
14.3178 17.1629 5.9966 
15.6181 18.7854 7.14116 
14.2477 20.0178 5.79022 
18.6163 18.5976 4.23082 
17.2794 17.2831 5.73575 
18.7335 18.7321 7.15932 
20.0022 17.4051 5.72609 
17.2835 20.2427 5.94355 
19.9643 20.1095 5.71283 
21.5435 18.6955 4.29498 
24.5053 18.6915 4.114 
21.5701 18.8399 7.19177 
23.0401 17.3175 5.84327 
22.9115 19.965 5.62505 
24.3816 18.701 7.1432 
27.1565 18.7174 4.47724 
28.6274 17.4188 5.70851 
25.8329 17.2395 5.77703 
27.2332 18.7234 7.24743 
25.8001 19.9646 5.70714 
1.56885 21.4943 4.33244 
1.50424 24.3839 4.14288 
1.56172 21.6158 7.28401 
2.93609 22.8469 5.69844 
1.32494 24.3246 7.0992 
0.262369 22.8926 5.81239 
4.35682 21.548 4.20865 
7.19501 21.5466 4.28534 
7.15993 24.487 4.44139 
4.31325 24.3608 4.38122 
4.19422 24.3547 7.07536 
4.21679 21.6164 7.23486 
7.22812 21.7282 7.2037 
5.92771 22.9954 5.70092 
7.1472 24.5175 7.17072 
9.99512 21.4793 4.18686 
10.0577 24.3492 4.12346 
10.0965 21.5962 7.20408 
8.79699 22.9457 5.69886 
10.0413 24.394 7.13362 
11.4799 23.0053 5.72297 
12.6868 21.3806 4.15564 
15.8131 21.5831 4.46193 
15.7548 24.3246 4.39945 
12.8568 21.5381 7.11512 
15.719 21.4983 7.32571 
14.351 22.9134 5.78322 
15.5778 24.3495 7.1731 
12.9413 24.3717 7.10586 
18.5123 21.3893 4.24515 
18.5535 24.5072 4.29857 
18.5394 21.6869 7.267 
17.0202 22.9567 5.84119 
19.8763 22.9341 5.82432 
18.6742 24.5288 7.06036 
21.337 21.4841 4.36224 
24.432 21.5775 4.48322 
21.4688 24.2877 4.43231 
24.1721 24.2975 4.45866 
21.424 21.5201 7.27198 
22.9576 22.97 5.80148 
24.4718 24.4453 7.19862 
24.4276 21.2931 7.10975 
21.466 24.2666 7.26036 
27.3842 21.6325 4.3662 
27.2279 24.4287 4.39967 
27.4338 21.5377 7.06658 
26.0066 22.9269 5.85008 
27.181 24.4981 7.09918 
1.54139 27.3173 4.30791 
1.28328 27.3447 7.07241 
2.80602 25.9284 5.83712 
4.24321 27.3048 4.32452 
7.33888 27.1982 4.32351 
5.84772 28.6743 5.84578 
4.22643 27.32 7.22813 
5.65244 25.8742 5.78409 
7.29925 27.4338 7.30341 
10.1736 27.2222 4.2679 
8.84653 25.779 5.68872 
10.1617 27.4075 7.04886 
11.4765 25.7859 5.68599 
12.9906 27.2185 4.25957 
15.9131 27.248 4.32041 
14.3841 28.632 5.63429 
12.8464 27.2942 6.99247 
14.376 25.8078 5.68959 
15.5741 27.2059 7.24507 
18.7132 27.1902 4.39733 
17.1785 28.6819 5.94933 
17.2717 25.9907 5.73686 
18.6108 27.1701 7.18376 
20.2982 25.7479 5.67784 
21.5728 27.3987 4.3483 
24.2599 27.1029 4.15783 
21.5574 27.179 7.26773 
22.8126 25.6993 5.94826 
24.2714 27.1642 7.21334 
27.1062 27.2999 4.27913 
28.6341 28.526 5.64765 
28.6086 25.8594 5.59119 
25.8945 25.9413 5.7137 
27.2473 27.3519 7.19471 
2.6361 2.94963 8.58798 
0.0376823 0.165859 11.4521 
1.50068 1.35086 10.0663 
2.8894 2.86578 11.6456 
3.02238 0.1029 11.2697 
5.88922 2.89625 8.5609 
5.67193 0.111331 8.65412 
4.14382 1.63699 9.94091 
7.3456 1.45838 9.96664 
5.88748 2.95788 11.2881 
8.59063 2.96169 8.35431 
11.6773 3.03369 8.47869 
8.74782 0.104674 11.326 
10.2322 1.66309 9.91057 
8.47648 2.96641 11.6182 
11.4333 2.98034 11.5266 
11.5354 0.038799 11.4162 
14.274 2.77735 8.7592 
14.2865 0.064114 11.5364 
12.8401 1.49408 10.0775 
15.9047 1.22518 10.294 
14.3244 2.78813 11.4296 
17.1028 2.69573 8.8588 
20.1344 2.90309 8.69546 
20.2645 0.0196361 11.4656 
18.5063 1.48075 9.96964 
17.2878 2.96913 11.5043 
20.2053 2.78934 11.3557 
23.1053 2.90871 8.76435 
21.5082 1.26792 9.92852 
24.4053 1.2933 10.0573 
23.1475 2.8377 11.3084 
28.693 2.95258 8.53874 
28.6384 0.095673 8.63445 
25.9348 3.03814 8.61276 
28.6895 2.80674 11.4503 
27.1901 1.41752 9.96798 
25.9285 2.63578 11.577 
2.6487 5.70641 8.57657 
1.30865 4.15399 10.0293 
1.42647 7.05671 10.0255 
2.78487 5.85558 11.5951 
5.63765 5.79924 8.65705 
4.14507 7.16606 9.9819 
7.26845 4.21433 9.82468 
4.2147 4.423 10.0802 
7.10062 7.1727 10.2403 
5.62226 5.68634 11.529 
8.60354 5.72108 8.58043 
11.5446 5.80872 8.47101 
10.1821 4.25022 9.75701 
9.95398 7.13146 10.1431 
8.5451 5.54895 11.3663 
11.539 5.72141 11.5584 
14.336 5.53337 8.74862 
15.7664 4.21005 10.1819 
12.7581 4.39888 10.1421 
13.0032 7.20015 10.0154 
15.8005 7.04212 10.1502 
14.3239 5.65366 11.4237 
17.1603 5.63821 8.86787 
20.1879 5.7365 8.54536 
18.6733 4.28939 10.1067 
18.6727 7.10276 10.1243 
17.1705 5.7681 11.4811 
20.3712 5.74325 11.396 
23.0358 5.73383 8.54841 
21.5706 4.26566 9.95227 
21.589 7.19057 10.0853 
23.0167 5.71632 11.6378 
24.3448 7.04434 9.96773 
24.378 4.32294 10.0395 
28.6453 5.59152 8.5329 
25.8034 5.73143 8.50983 
28.6977 5.73003 11.3901 
27.3313 4.14675 10.0291 
27.1874 7.09974 9.90667 
25.893 5.53558 11.3487 
2.89308 8.69598 8.6952 
2.99734 11.4261 8.64386 
0.172366 11.5215 8.46114 
0.0689665 8.57789 8.63664 
1.43457 10.1445 10.104 
2.81976 8.65595 11.5258 
2.90332 11.5285 11.4464 
0.0560573 11.5404 11.5288 
5.66181 8.47427 8.56664 
5.66421 11.4367 8.49617 
4.43466 10.0273 10.0939 
7.16166 9.98655 9.91944 
5.73079 8.6386 11.6152 
5.86382 11.5987 11.5984 
8.50313 8.46958 8.52223 
11.4167 8.67112 8.80286 
8.58691 11.4953 8.54076 
11.3189 11.6151 8.72285 
10.1188 10.2758 10.1486 
8.69314 8.60448 11.505 
11.632 8.66024 11.3535 
8.66625 11.4784 11.4835 
11.5566 11.4946 11.4693 
14.4377 8.44079 8.60473 
14.2396 11.5319 8.73956 
13.0009 10.0951 10.0295 
15.7134 9.99836 10.064 
14.4712 8.60902 11.4514 
14.5342 11.5708 11.3633 
17.3169 8.40663 8.46895 
20.203 8.51104 8.60077 
17.4063 11.3431 8.47415 
19.9784 11.3928 8.50124 
18.689 9.89668 9.93371 
17.2054 8.62605 11.5747 
19.9373 8.4465 11.2909 
17.397 11.3852 11.3288 
20.162 11.4054 11.261 
22.8266 8.70483 8.66015 
22.832 11.4599 8.61102 
21.4669 9.87923 9.98932 
23.0191 8.70115 11.5709 
22.8741 11.6258 11.3166 
24.3731 10.042 9.89375 
25.6884 8.60101 8.50484 
26.0275 11.6258 8.4656 
28.4619 8.55641 11.4163 
27.2957 10.0137 10.0783 
25.8127 8.53066 11.3462 
25.7956 11.487 11.2482 
2.98873 14.4186 8.46985 
0.204712 14.5502 8.54951 
1.44694 13.0165 10.1237 
1.56983 15.6824 10.0428 
2.92245 14.4045 11.6247 
0.0180555 14.4212 11.5325 
5.73194 14.2137 8.54007 
4.565 15.8596 9.94404 
4.22453 12.9405 10.0181 
7.32264 12.7636 10.1067 
7.14088 15.754 9.91293 
5.6014 14.4177 11.3433 
8.60477 14.2663 8.50981 
11.4793 14.4649 8.55634 
10.0167 12.9431 10.123 
10.0349 15.6922 10.1727 
8.70956 14.457 11.4831 
11.4867 14.4446 11.5322 
14.327 14.542 8.48728 
13.0202 13.0816 10.0598 
15.9545 12.8615 9.95914 
12.9691 15.9435 10.0165 
15.9122 15.6819 9.85973 
14.3125 14.4526 11.5825 
17.3411 14.4209 8.59553 
20.109 14.4517 8.41759 
18.7979 13.1631 10.0191 
18.6819 15.7274 10.0075 
17.3009 14.3272 11.7146 
20.3301 14.4704 11.3526 
22.8453 14.3178 8.63542 
21.2226 12.9107 9.81207 
21.6384 15.7994 9.96804 
22.898 14.254 11.3972 
24.5128 15.7099 10.0835 
24.3209 13.0169 9.78379 
25.9238 14.4295 8.61547 
27.4391 12.9512 10.0679 
27.418 15.7484 9.9922 
25.9522 14.3183 11.456 
2.96178 17.1708 8.5982 
2.86033 19.9926 8.60213 
0.0356201 20.0457 8.59784 
1.26222 18.638 10.1002 
2.85826 17.1679 11.4291 
2.84567 20.1127 11.2647 
5.78044 17.2623 8.56985 
5.79474 20.1379 8.56168 
4.37161 18.4517 9.97002 
7.19358 18.702 9.96084 
5.95429 17.0502 11.4202 
5.93253 20.1783 11.0907 
8.56749 17.1612 8.64881 
11.5174 17.1009 8.59559 
8.76272 20.0583 8.65043 
11.3992 19.9176 8.51596 
9.8048 18.5321 10.1822 
8.41463 17.0672 11.5796 
11.4492 17.2965 11.557 
8.61306 20.2769 11.3542 
11.4656 19.997 11.5248 
14.4551 17.3131 8.55759 
14.2695 20.0873 8.79608 
12.9756 18.6349 10.1815 
15.7716 18.6151 10.0576 
14.3785 17.2427 11.6405 
14.2692 20.1746 11.716 
17.1558 17.4206 8.42779 
20.0196 17.2653 8.61963 
17.216 20.2225 8.63133 
19.8686 20.1655 8.64092 
18.4892 18.6868 9.88623 
17.1495 17.2949 11.5361 
20.1801 17.2553 11.3231 
16.9395 20.1641 11.2821 
20.0883 20.0465 11.3926 
23.0016 17.4032 8.62451 
23.0368 20.0037 8.81294 
21.4904 18.6881 10.1575 
22.8891 17.1158 11.478 
23.0634 20.0856 11.1905 
28.7095 17.1209 8.60096 
26.0471 17.2248 8.71578 
25.7898 20.1692 8.57907 
28.6967 20.2742 11.5649 
24.6289 18.5874 10.0108 
28.6659 17.2414 11.4564 
27.3503 18.7814 10.3068 
25.8851 17.207 11.3651 
25.9055 20.2656 11.5135 
3.00548 23.0837 8.59138 
0.0413008 23.009 8.54862 
1.37037 24.4322 10.1032 
1.50556 21.4777 10.0015 
2.95014 23.048 11.3667 
0.157176 22.95 11.5587 
5.61954 22.9334 8.7163 
4.33098 24.5292 10.0438 
7.10107 24.4796 9.86096 
4.30561 21.5976 9.98047 
7.3104 21.5384 9.91394 
5.88264 22.8696 11.481 
8.61732 23.2212 8.7051 
11.5227 23.0063 8.3967 
10.0778 24.4998 10.0575 
10.3106 21.4559 9.9798 
8.72397 22.9409 11.3751 
11.3164 23.0746 11.4353 
14.127 22.9457 8.70057 
14.186 22.9169 11.4611 
12.8284 21.3981 10.1019 
15.5515 21.4894 9.96669 
12.8581 24.31 10.1249 
15.6982 24.4406 9.98829 
17.0856 23.1412 8.70964 
20.0491 22.8908 8.57177 
17.1283 22.8429 11.4808 
20.1563 22.8727 11.438 
18.5509 24.2909 10.0441 
18.7083 21.5417 10.1201 
23.1824 23.0115 8.49918 
24.5692 21.4598 10.0473 
24.4869 24.2825 10.0069 
23.1207 23.0015 11.5898 
21.5115 24.278 10.0436 
21.6071 21.6071 9.93043 
26.0125 22.9693 8.33792 
25.857 22.9595 11.3614 
27.3738 24.5343 10.0911 
27.2177 21.5757 9.996 
2.83408 28.5734 8.65157 
2.88469 25.8646 8.65814 
0.00751886 25.8015 8.65541 
2.95841 25.9408 11.3886 
1.30875 27.2929 9.96297 
5.59112 25.8422 8.46048 
5.82635 28.6975 11.3988 
4.35078 27.3239 10.1519 
5.75339 25.9546 11.6138 
7.09351 27.2482 9.94319 
11.4524 28.6389 8.50307 
8.72145 28.6826 8.5665 
8.72163 25.8096 8.47681 
11.5501 25.8634 8.46855 
11.4667 25.9555 11.7768 
8.60836 26.0228 11.5925 
10.0609 27.3562 10.003 
14.2808 28.6331 8.57533 
14.2176 25.7631 8.54111 
14.2447 25.7766 11.464 
15.7372 27.1497 10.1046 
12.8928 27.1971 10.1945 
17.0464 28.4401 8.6382 
19.9321 28.5508 8.71847 
17.1989 25.7963 8.45711 
20.1365 25.8069 8.60559 
17.3486 28.6294 11.6682 
17.2486 25.7204 11.4358 
18.6411 27.2073 10.1563 
20.0231 25.8263 11.5765 
22.9764 28.6208 8.66588 
22.8444 25.6179 8.67036 
21.4804 27.2623 10.2622 
24.2755 27.053 9.98073 
23.0852 25.7204 11.5106 
23.0821 28.6446 11.4202 
25.7941 28.5999 8.6388 
25.8503 25.8835 8.63216 
27.3411 27.2002 9.9745 
25.8264 25.8431 11.3119 
25.7357 28.5136 11.458 
28.6629 25.7325 11.5206 
1.385 1.40527 12.8239 
2.75669 0.191348 14.1217 
1.55074 1.39129 15.8956 
2.91363 2.87416 14.3684 
4.63948 1.56787 12.8547 
7.15333 1.4713 12.8257 
5.80172 0.077285 14.1864 
4.41281 1.59331 15.5857 
7.17942 1.45868 15.5803 
5.75025 3.07346 14.4401 
10.0754 1.6067 12.6993 
11.5031 2.83492 14.3535 
8.58449 3.00644 14.3154 
11.4167 0.182345 14.1909 
9.96517 1.35275 15.7386 
8.47796 0.154232 14.4091 
12.9955 1.60903 12.961 
15.8788 1.37278 12.9564 
12.8948 1.25969 15.8744 
15.7066 1.34839 15.8515 
14.285 2.84738 14.3968 
18.6952 1.47736 12.7779 
20.1462 2.92658 14.274 
18.7232 1.46117 15.7579 
17.2038 2.71917 14.4052 
21.7635 1.39095 12.8334 
24.3975 1.24566 13.015 
22.977 2.79196 14.2844 
21.632 1.49534 15.7679 
24.4832 1.37292 15.7793 
27.3032 1.40744 12.9835 
28.5955 2.82205 14.3947 
27.333 1.52302 15.9037 
25.7723 2.75872 14.4715 
28.6584 0.0381055 14.3585 
1.36473 4.19767 12.9965 
1.36228 7.41039 13.0308 
2.72856 5.58246 14.2365 
0.0228285 5.6464 14.0615 
1.61794 4.25782 15.7846 
1.32163 7.15513 15.7383 
4.19884 4.15931 12.9091 
4.2311 7.05856 12.8574 
7.37243 4.49593 13.1212 
7.27227 6.97614 12.8534 
5.6381 5.80102 14.1307 
4.35888 4.43145 15.7664 
4.3586 7.17259 15.6203 
7.26603 4.2279 15.7373 
7.12521 7.14589 15.6112 
10.1882 4.4783 13.0343 
10.3822 7.21349 12.9035 
8.75984 6.06455 14.3246 
10.1937 4.3431 15.5926 
10.2273 7.26983 15.6799 
11.6664 5.73275 14.6487 
15.588 4.2772 12.8078 
12.824 4.30977 13.147 
12.992 7.10767 12.8023 
15.6846 7.09764 12.8333 
14.2964 5.70699 14.3182 
13.007 4.19215 15.9673 
15.5729 4.20458 15.7812 
13.0459 7.21821 15.7052 
15.8315 7.1636 15.9292 
18.6152 4.24825 12.8261 
18.602 7.15597 12.8758 
18.6344 4.31157 15.8517 
18.6703 7.26443 15.7572 
17.1931 5.74125 14.4449 
20.074 5.51909 14.3869 
21.6967 4.33429 12.8268 
24.5058 4.31394 13.0978 
21.7021 7.46666 12.8963 
23.1162 5.99534 14.2121 
21.6975 4.3541 15.6771 
24.3569 4.26567 15.5845 
21.5364 7.17741 15.7321 
24.4496 7.15074 15.7233 
24.6849 7.22542 12.761 
27.2852 4.23555 12.8155 
27.2281 7.224 12.7405 
25.8617 5.84105 14.2474 
27.2515 4.29701 15.5899 
27.1977 7.18837 15.7261 
1.34795 9.99862 12.8846 
0.00241841 11.46 14.2852 
1.43055 10.1336 15.6994 
2.75281 11.4432 14.4285 
2.94191 8.70243 14.4597 
4.33039 10.0847 12.7462 
7.18618 10.1015 12.9498 
5.87702 11.4525 14.2636 
5.64141 8.66369 14.3412 
4.28429 10.1733 15.8735 
7.37077 9.84429 15.7047 
9.86907 10.1744 12.8733 
8.6464 8.53712 14.2423 
8.68362 11.4826 14.3258 
11.6476 11.4156 14.3169 
10.0866 10.1014 15.8201 
11.3989 8.77103 14.3628 
12.9606 9.94813 13.0614 
15.6743 9.97025 12.8347 
12.8879 10.1012 16.0143 
15.8915 10.1914 15.7968 
14.3558 11.5438 14.4257 
14.3118 8.53904 14.4542 
18.7502 10.167 12.9557 
20.1848 8.49205 14.187 
17.3057 11.5817 14.3114 
20.0085 11.4622 14.3258 
18.6309 10.0859 15.8379 
17.2607 8.6339 14.5323 
21.3472 9.9857 12.8033 
24.3692 10.1169 12.6997 
23.1322 8.64583 14.2754 
22.8379 11.4061 14.2318 
21.4255 10.0558 15.7131 
24.528 10.1423 15.7012 
26.9953 10.0763 12.7811 
28.656 8.6067 14.2259 
25.8571 8.54425 14.2644 
25.7316 11.5447 14.2857 
27.2265 10.1364 15.6296 
1.50679 12.9302 12.9634 
1.47524 15.6974 12.7918 
0.0210835 14.4549 14.281 
2.90681 14.4931 14.3493 
1.50643 12.9252 15.9685 
1.53675 15.7985 15.5361 
4.07357 12.9188 15.6245 
4.38105 15.9274 12.7416 
4.35139 13.0199 12.8253 
7.26549 13.0801 12.9423 
7.30596 15.6233 12.9087 
5.72364 14.4084 14.3064 
4.38282 15.9436 15.455 
7.15882 13.0446 15.794 
7.31372 15.6648 15.9205 
10.2332 12.8765 12.9694 
10.1026 15.7797 13.0042 
10.1554 12.8077 15.793 
9.93239 15.8114 15.8036 
11.6032 14.2805 14.5136 
8.80342 14.3271 14.3726 
13.0068 12.9076 13.099 
15.6054 12.6968 12.9951 
12.7446 15.7453 12.9259 
15.7924 15.8008 12.945 
12.8419 13.0046 15.858 
15.7545 12.984 15.9584 
12.9607 15.7513 15.7587 
15.8384 16.0574 15.7553 
14.381 14.4124 14.4322 
18.7112 12.9901 12.8606 
18.7073 15.7603 12.6851 
18.7811 13.0368 15.8542 
18.6925 15.7296 15.7688 
17.1577 14.3107 14.4166 
20.1243 14.3423 14.3948 
21.432 12.796 12.8043 
21.4391 15.7808 12.8099 
24.3748 15.5788 12.7988 
24.4523 12.7879 12.7041 
22.8987 14.1854 14.0904 
21.434 12.8651 15.838 
21.5337 15.7309 15.5636 
24.2259 15.7443 15.6934 
24.417 12.9768 15.7469 
27.4299 12.9451 12.8279 
27.2576 15.9099 12.7844 
25.9185 14.3902 14.2419 
27.3813 12.9279 15.5387 
27.3457 15.8611 15.7555 
1.55448 18.846 12.8881 
2.79612 17.3124 14.1217 
0.11805 17.3315 14.2238 
1.42188 18.6189 15.761 
3.00758 20.1887 14.4986 
4.49892 18.784 12.7611 
7.27907 18.8625 12.8618 
5.73747 20.143 14.2302 
5.94558 17.2196 14.2373 
4.39339 18.685 15.6093 
7.30092 18.5184 15.8213 
9.92568 18.6254 12.8836 
8.55418 20.1187 14.3516 
8.55806 17.1602 14.3353 
10.1063 18.8857 15.7996 
11.3864 17.372 14.4319 
11.4125 20.2115 14.3836 
14.0773 20.3249 14.2298 
12.8118 18.6859 12.9181 
15.8422 18.791 12.9958 
14.2672 17.3131 14.3549 
12.9688 18.8739 15.8468 
15.9367 18.8539 15.6693 
18.7414 18.6543 12.8958 
20.0675 17.2088 14.246 
17.335 20.0555 14.2103 
18.8232 18.6683 15.5752 
17.2932 17.0826 14.4453 
20.1729 20.2353 14.3612 
21.6525 18.6437 12.8652 
24.5334 18.5604 12.77 
22.9315 17.1791 14.1203 
22.9277 20.2126 14.3404 
21.4049 18.7793 15.8772 
24.2752 18.4844 15.6379 
27.401 18.6499 12.8009 
25.8671 20.081 14.3239 
28.6484 20.046 14.2982 
25.953 17.1474 14.2428 
27.3061 18.6406 15.6314 
1.5312 21.4144 13.0785 
1.45077 24.3327 12.7633 
1.19117 21.4488 15.6948 
1.51322 24.4366 15.7353 
0.0063885 23.0224 14.3874 
2.91269 22.9061 14.3575 
4.35897 21.3841 12.6969 
7.27125 21.5034 12.7555 
4.21423 24.3501 12.8225 
7.36171 24.4334 12.7379 
5.85718 22.8603 14.224 
4.3746 21.4142 15.7716 
7.20939 21.4804 15.8918 
7.22094 24.3559 15.7246 
4.47462 24.362 15.6919 
9.89507 24.4851 13.0856 
10.0361 21.578 13.0036 
8.50357 22.8594 14.2787 
10.0747 21.4863 15.679 
9.86598 24.2371 15.7424 
11.4504 23.187 14.4226 
15.6727 24.1617 12.856 
15.6833 21.6132 12.9032 
12.8933 24.5023 13.0541 
12.624 21.5889 12.8692 
12.9486 21.6776 15.8892 
15.8479 21.7208 15.7817 
15.7582 24.57 15.8694 
12.702 24.5443 16.0611 
14.2107 22.9706 14.4368 
18.7505 24.2008 12.9438 
18.5935 21.229 12.6815 
17.2874 22.8974 14.3106 
18.7126 21.375 15.6435 
18.7041 24.2763 15.6502 
20.0333 22.7989 14.4364 
21.572 24.4409 12.8683 
24.4773 24.2753 12.8899 
21.5469 21.33 12.6523 
24.3989 21.492 13.0872 
21.5726 21.457 15.7291 
24.3033 21.3343 15.8526 
24.4441 24.468 15.823 
21.388 24.4742 15.7282 
22.8705 22.8398 14.5316 
27.2728 21.5467 12.9218 
27.418 24.3549 12.7714 
27.2759 21.2803 15.8063 
27.2837 24.396 15.6789 
25.6728 22.95 14.549 
1.55164 27.2817 12.8373 
0.0495775 25.7891 14.256 
1.34446 27.4674 15.7422 
3.00312 25.7467 14.3645 
7.16091 27.4056 12.791 
4.34235 27.3059 12.8676 
5.90552 25.7639 14.2286 
4.24901 27.2462 15.7037 
7.00938 27.4516 15.6569 
9.98433 27.5148 13.0855 
9.89557 27.4889 15.8237 
11.4539 25.7764 14.361 
8.53859 25.9444 14.5168 
15.8195 27.2302 12.9736 
12.9373 27.338 12.9761 
14.282 28.5518 14.28 
12.8116 27.302 15.8073 
15.6433 27.0063 15.8463 
14.1953 25.8166 14.3736 
18.7816 27.2937 12.9356 
17.2186 25.6947 14.0509 
17.2736 28.4404 14.4224 
18.5754 27.0897 15.71 
19.9817 28.691 14.5243 
20.0487 25.883 14.4002 
24.3781 27.1826 12.9024 
21.5059 27.1762 13.1059 
22.9 28.6114 14.3877 
21.5569 27.1218 15.6448 
24.4698 27.2331 15.7553 
23.2135 25.7102 14.4212 
26.1113 25.7472 14.2373 
27.375 27.1923 12.8213 
25.8173 28.5887 14.3184 
27.3901 27.4641 15.649 
1.36723 1.39198 18.601 
3.06996 2.67544 17.3372 
2.96674 0.11565 17.0915 
0.0268881 2.91541 17.1764 
2.86034 3.05738 20.184 
0.0664148 0.0114405 19.9285 
4.3319 1.51684 18.86 
7.16209 1.46966 18.6388 
5.87675 3.04671 17.2055 
5.68357 0.127579 17.265 
5.92328 2.96943 19.9592 
5.79137 0.0548732 20.1366 
10.1229 1.3974 18.6485 
8.69104 2.75746 17.1414 
11.3769 3.0566 17.2198 
11.3971 0.0952221 17.3653 
8.67781 2.79484 20.0643 
11.4474 2.91349 20.1891 
8.69617 0.0316454 19.9703 
12.7996 1.47984 18.6077 
15.8911 1.31459 18.7599 
14.4437 2.73828 17.4831 
14.4752 2.94098 20.1869 
18.806 1.49641 18.5553 
17.2981 2.91621 17.4031 
20.1197 2.92026 17.1229 
17.4283 0.0502059 17.1755 
17.3277 2.89123 20.0268 
20.0683 2.92872 19.96 
21.5167 1.40711 18.5962 
22.9517 2.91783 17.2503 
24.2753 1.55227 18.618 
23.0685 2.82681 20.2057 
22.9897 0.0228786 20.0623 
27.2855 1.44333 18.6265 
25.72 2.86596 17.3473 
25.8623 0.0463335 17.2859 
28.5953 2.94634 20.1384 
25.8344 2.94081 20.1026 
25.9682 0.0928118 19.8558 
1.59738 4.37101 18.5907 
1.44351 7.04949 18.7096 
2.90202 5.87356 17.1609 
4.07164 7.18915 18.5415 
2.67648 5.65755 20.1316 