ITEM: TIMESTEP
46040
ITEM: NUMBER OF ATOMS
18
ITEM: BOX BOUNDS pp pp pp
0.0000000000000000e+00 2.8712000000000000e+01
0.0000000000000000e+00 2.8712000000000000e+01
0.0000000000000000e+00 2.8712000000000000e+01
ITEM: ATOMS x y z c_cna 
24.4054 10.0519 1.53287 5 
25.9869 8.21427 0.144532 5 
27.221 10.0518 1.37882 5 
25.9869 11.8895 0.144593 5 
21.5807 10.0521 24.4499 5 
24.3962 10.0521 24.2958 5 
24.4009 7.21784 27.2703 5 
23.0021 8.62958 28.6691 5 
22.815 8.21457 25.6843 5 
23.6518 10.0521 26.521 5 
21.4266 10.052 27.2657 5 
22.8149 11.8897 25.6842 5 
23.0021 11.4743 28.6692 5 
25.1498 10.0518 28.0195 5 
25.7996 8.62962 25.8715 5 
27.3751 10.0519 27.275 5 
25.7996 11.4744 25.8716 5 
24.4008 12.8861 27.2704 5 
ITEM: TIMESTEP
46041
ITEM: NUMBER OF ATOMS
18
ITEM: BOX BOUNDS pp pp pp
0.0000000000000000e+00 2.8712000000000000e+01
0.0000000000000000e+00 2.8712000000000000e+01
0.0000000000000000e+00 2.8712000000000000e+01
ITEM: ATOMS x y z c_cna 
24.4054 10.0519 1.53287 5 
25.9869 8.21427 0.144532 5 
27.221 10.0518 1.37882 5 
25.9869 11.8895 0.144593 5 
21.5807 10.0521 24.4499 5 
24.3962 10.0521 24.2958 5 
24.4009 7.21784 27.2703 5 
23.0021 8.62958 28.6691 5 
22.815 8.21457 25.6843 5 
23.6518 10.0521 26.521 5 
21.4266 10.052 27.2657 5 
22.8149 11.8897 25.6842 5 
23.0021 11.4743 28.6692 5 
25.1498 10.0518 28.0195 5 
25.7996 8.62962 25.8715 5 
27.3751 10.0519 27.275 5 
25.7996 11.4744 25.8716 5 
24.4008 12.8861 27.2704 5 
