ITEM: TIMESTEP
46000
ITEM: NUMBER OF ATOMS
2001
ITEM: BOX BOUNDS pp pp pp
0.0000000000000000e+00 2.8712000000000000e+01
0.0000000000000000e+00 2.8712000000000000e+01
0.0000000000000000e+00 2.8712000000000000e+01
ITEM: ATOMS x y z 
1.21118 1.50263 1.43155 
1.21019 1.5433 4.03036 
2.63596 2.86893 2.69562 
2.66006 0.0555224 2.81224 
4.19368 1.49361 1.29242 
7.0053 1.47223 1.31421 
5.48329 3.04748 2.95081 
5.51493 0.0226018 2.78154 
10.0305 1.47557 1.52872 
8.53441 2.90427 2.6892 
11.5751 2.94742 2.9083 
11.7772 0.0396352 2.92991 
9.97099 4.06809 1.26314 
11.5407 0.0230668 0.103922 
11.4617 2.75448 0.0491249 
12.9728 1.45684 1.31988 
15.7087 1.46046 1.61471 
14.4316 2.88916 2.86252 
14.3243 0.123919 2.80197 
18.6491 1.38568 1.39521 
17.2857 2.68969 2.9001 
20.1615 2.70565 2.81742 
21.495 1.39954 1.32431 
23.0204 2.93424 3.00035 
24.4325 1.32869 1.23081 
22.9483 2.95323 0.00262726 
28.5603 3.00723 2.89339 
28.4312 0.0332059 2.83214 
27.2713 1.55409 1.32572 
25.8961 2.94162 2.74859 
25.7716 0.191048 2.96346 
1.29926 4.42315 1.32074 
1.38725 7.11573 1.52449 
2.86466 5.73504 2.8218 
0.0203893 5.74709 3.02997 
4.22948 4.59019 1.26253 
7.13143 4.52626 1.41305 
4.30766 7.25962 1.26193 
7.10157 7.17027 1.37923 
5.54101 5.78489 2.72972 
10.1047 7.02933 1.42133 
8.62724 5.67172 2.90013 
11.3892 5.51436 2.77347 
15.6954 4.16013 1.44957 
13.0448 4.3553 1.33382 
12.9621 7.00049 1.27454 
15.8422 7.16352 1.24012 
12.9263 6.98407 4.09305 
14.3543 5.54715 2.81445 
18.6928 4.34962 1.61371 
18.6035 7.24322 1.78638 
17.0277 5.63915 2.87131 
20.0363 5.73955 3.10912 
17.226 5.83583 0.0115642 
24.3871 4.34769 1.47823 
21.549 4.38773 1.36845 
21.5791 6.93267 1.48016 
22.7709 5.68325 2.9566 
24.3519 7.08149 1.54183 
22.9816 5.52525 0.0724624 
27.319 4.35304 1.4328 
27.2785 7.06839 1.68766 
25.8167 5.69212 2.96911 
25.8171 8.09766 0.11979 
1.21891 10.1221 1.36438 
2.73445 8.61521 2.69198 
2.77586 11.246 2.67923 
0.0101669 11.4776 2.82685 
5.67441 11.4844 0.0457542 
4.23972 9.9673 1.27031 
6.98653 9.81927 1.33327 
5.65768 8.66564 2.88176 
5.65515 11.3798 2.69639 
10.1017 9.99989 1.30382 
8.67856 8.65417 2.79275 
11.3731 8.6205 3.00332 
8.6004 11.3837 2.76787 
11.5634 11.257 2.88252 
8.52156 8.42219 0.0736581 
11.5936 11.3533 0.0542536 
12.8167 9.89192 1.39696 
15.8106 10.0408 1.25378 
14.4423 8.57492 2.75965 
14.3444 11.3386 2.64287 
14.4195 11.5117 0.0727279 
20.1055 11.5918 0.295557 
18.5932 9.82709 1.29498 
17.1254 8.80714 2.81632 
20.0426 8.71276 2.7879 
17.2172 11.4917 2.78499 
19.8368 11.5894 2.82311 
20.0982 8.44268 0.0855446 
23.0003 8.64404 0.0577195 
21.3535 9.96493 1.45522 
22.8545 8.51096 2.89915 
22.702 11.5804 2.93776 
24.217 9.88571 1.61445 
28.4465 8.4065 0.0389723 
28.7004 8.6266 2.89778 
27.0548 9.98081 1.36002 
25.777 8.58548 2.89475 
25.6391 11.3432 2.87854 
1.532 13.0083 1.41609 
1.43772 15.6814 1.4608 
2.96197 14.4145 2.97249 
0.191328 14.1801 2.95538 
4.29065 15.7404 1.14297 
4.17563 13.0373 1.34122 
7.18547 12.8339 1.4938 
7.11687 15.8374 1.42707 
5.81337 14.2157 2.72034 
10.054 12.7214 1.32031 
9.91871 15.5991 1.35241 
8.72844 14.2566 2.93913 
11.3791 14.256 2.80962 
8.4089 14.1726 0.0830627 
12.8872 12.8974 1.41501 
15.6897 12.9716 1.34604 
12.7471 15.8278 1.33373 
15.7453 15.7188 1.39269 
14.3173 14.3582 2.76552 
18.4084 12.925 1.49723 
18.5459 15.8711 1.40478 
17.212 14.2684 3.02296 
19.8605 14.4652 2.88386 
19.7981 14.2928 0.0987967 
21.5144 13.0339 1.57527 
21.4066 15.7224 1.55832 
22.8809 14.4258 3.08994 
24.1923 12.9057 1.59774 
24.3552 15.69 1.55866 
22.797 14.3776 0.0954313 
27.2427 12.8909 1.52685 
27.1769 15.6647 1.60647 
25.8877 14.2064 3.14154 
25.6419 14.3052 0.286755 
2.81005 17.0492 0.0627125 
1.51433 18.5965 1.38567 
2.93145 17.0547 3.005 
2.69234 20.0408 2.92264 
0.0721706 20.2232 2.98023 
5.80438 19.954 0.061236 
5.72895 17.0775 0.0431446 
4.26762 18.5008 1.28427 
6.99554 18.5198 1.44447 
5.78129 17.1735 2.9042 
5.53033 20.0264 2.8404 
8.55277 17.1474 0.17364 
8.53993 20.082 0.211761 
10.0049 18.6943 1.39592 
8.76109 17.0608 2.89726 
11.37 17.2567 2.71144 
8.40315 19.9378 2.93873 
11.7147 20.171 2.83039 
11.3631 17.1919 0.00437304 
12.9517 18.6209 1.21387 
15.7677 18.7127 1.30871 
14.3925 17.2379 2.7049 
14.2619 19.9929 2.6154 
14.2766 17.0245 0.0311149 
18.5844 18.5994 1.35896 
17.2549 17.2194 2.93029 
19.9542 17.2761 2.90159 
17.0236 19.8876 2.92411 
20.2539 20.1788 2.7544 
20.0819 17.3004 0.0876132 
21.6263 18.7365 1.59879 
24.1956 18.7083 1.51881 
22.9368 17.0866 3.05928 
23.1451 20.179 2.86505 
23.0048 17.2042 0.0705288 
28.5742 17.1755 2.78576 
27.2221 18.6991 1.23419 
25.7556 17.2507 2.95916 
25.8201 20.2559 2.76688 
1.42192 21.4752 1.55468 
2.94753 22.995 2.91449 
1.45049 24.3713 1.54254 
0.00603499 22.9951 2.93487 
4.32431 24.3511 1.5132 
4.38934 21.4134 1.4644 
7.03304 21.465 1.53489 
7.1566 21.5808 4.07104 
5.76146 23.1292 2.89717 
7.27853 24.5307 1.57956 
5.81778 22.8656 0.218458 
9.97426 21.5257 1.48071 
8.58157 23.0034 2.76905 
11.492 22.902 2.94679 
10.1178 24.4461 1.42274 
11.4512 22.9521 0.0925801 
12.9117 21.6079 1.35073 
15.7569 21.6484 1.48373 
14.3223 22.8656 2.74184 
12.7587 24.4717 1.44998 
15.6564 24.4893 1.61973 
14.2223 23.3162 0.0634888 
18.5559 21.5123 1.50423 
17.2211 23.0128 2.82316 
19.9817 23.1033 2.77636 
18.5787 24.3351 1.42449 
17.0447 22.8543 0.0763913 
19.8473 22.9263 0.088201 
21.5264 21.6094 1.45821 
24.3111 21.6101 1.46094 
21.6535 24.4056 1.40304 
22.9119 22.9739 2.9842 
24.3828 24.2673 1.31242 
28.5279 22.953 0.0347926 
27.1183 21.5078 1.28423 
25.7557 23.0689 2.90271 
27.3736 24.4926 1.53584 
1.41411 27.393 1.33207 
2.70183 25.8482 2.7667 
0.0683151 25.85 3.14164 
2.82311 25.7789 0.11564 
4.28938 27.3028 1.40708 
6.99953 27.293 1.34795 
5.59729 25.8096 2.92543 
8.48026 28.6467 2.84469 
9.95627 27.5602 1.42622 
8.47498 26.0523 2.86689 
11.4291 26.0067 2.89161 
11.4601 25.9363 0.0995031 
14.3779 28.708 0.0349941 
13.165 27.3296 1.49678 
15.827 27.2539 1.51683 
14.2971 25.7963 2.95368 
14.3944 25.8851 0.0847617 
17.212 28.6372 3.10517 
20.0787 28.46 2.86084 
20.1141 28.512 0.0839603 
18.6264 24.6217 4.05581 
18.6139 27.0677 1.36992 
16.9394 25.7076 2.98246 
20.2111 25.8263 2.76731 
17.0424 25.6903 0.114658 
22.9692 28.6403 2.60669 
21.5433 27.208 1.35971 
23.0081 25.8573 2.93969 
24.4123 27.1692 1.50968 
28.6984 25.8936 0.126909 
27.264 27.1744 1.63583 
25.7648 25.7268 3.03342 
1.51172 1.50369 7.13564 
2.83296 2.72902 5.5694 
0.100787 2.92651 5.70033 
2.72837 0.0354288 5.75637 
4.14705 1.34238 4.22335 
7.00939 1.50238 4.13326 
4.26598 1.41846 7.10828 
7.22259 1.51533 7.13211 
5.74985 2.89636 5.80789 
5.73799 0.20635 5.67064 
10.2349 1.38405 4.34594 
9.9983 1.29609 7.12479 
8.70017 2.83905 5.69413 
11.6277 2.86699 5.90046 
13.0118 1.47172 4.40281 
15.7443 1.32811 4.47141 
12.932 1.38951 7.42762 
15.7357 1.34084 7.48416 
14.2458 2.86111 6.01776 
14.4907 0.0583829 5.86494 
18.6588 1.26176 4.32298 
18.8952 1.36771 7.1823 
17.1868 2.70838 5.80505 
19.9523 2.853 5.54053 
18.6202 4.06734 6.90966 
21.4692 1.26839 4.41408 
24.3103 1.39054 4.3367 
21.6522 1.5441 7.40449 
24.4807 1.58756 7.1791 
22.8278 2.96886 5.58689 
22.996 0.122692 5.84734 
27.1181 1.50171 4.31509 
27.3405 1.3015 7.25106 
25.7522 3.05672 5.72539 
25.8255 0.136356 5.81958 
28.6184 0.0646491 5.65698 
1.48124 4.34269 4.35746 
1.37278 7.10811 4.35116 
1.62323 4.42183 7.33417 
1.49099 7.16838 7.14758 
2.82154 5.99218 5.74663 
4.24781 7.30881 4.10632 
7.25717 4.18279 4.3085 
4.10846 4.31928 4.40678 
7.16782 7.23455 4.21445 
4.24964 7.24852 7.01413 
4.3531 4.42722 7.10883 
7.12805 4.36098 7.0685 
5.7951 5.59307 5.51619 
6.99687 7.03484 7.2008 
10.1336 4.13665 4.36836 
9.97978 6.89225 4.38305 
10.1119 4.18385 7.25731 
8.50692 5.70187 5.77367 
10.1485 7.16163 7.19118 
11.6638 5.67984 5.7854 
15.8227 4.15184 4.22477 
13.0644 4.26625 4.42453 
15.8532 7.20777 4.15709 
12.8372 4.49678 7.21706 
15.6089 4.34199 7.2634 
12.9833 7.17401 7.23298 
14.4941 5.67833 5.80548 
15.9808 7.20785 7.10438 
18.4556 4.3903 4.34753 
18.4165 6.84712 4.25783 
17.0623 5.62359 5.77809 
18.5344 7.32146 7.17343 
20.1071 5.69985 5.91722 
21.3719 4.32858 4.30311 
24.4569 4.6131 4.30461 
21.476 7.10494 4.3416 
24.3325 7.41203 4.32303 
21.525 4.2387 7.27505 
24.4414 4.27747 7.28367 
21.4827 7.15999 7.26531 
22.8944 5.74252 5.87813 
24.5129 7.51192 7.16661 
27.1324 4.3201 4.46822 
27.2994 7.33611 4.4386 
28.6456 5.80311 5.80499 
27.418 4.42652 7.27606 
25.8602 5.92984 5.97013 
27.3078 7.10734 7.13864 
1.36385 9.93315 4.23871 
1.38956 10.0264 7.24428 
2.73701 8.54171 5.70813 
2.7945 11.4752 5.6049 
0.0340451 11.4827 5.77276 
0.0159479 8.64265 5.70011 
4.16213 10.0144 4.10299 
7.26066 9.9766 4.25055 
4.27034 9.96538 7.29265 
5.56683 8.50486 5.59386 
7.01556 9.95176 7.02058 
5.74919 11.3859 5.50632 
9.94747 9.98179 4.34726 
8.62516 8.42641 5.80712 
10.0823 9.81808 7.12475 
11.6032 8.60569 5.60726 
8.65793 11.3821 5.76377 
11.5167 11.3255 5.73529 
13.0452 10.1325 4.28347 
15.8238 10.0541 4.23616 
13.0675 9.95454 7.0699 
14.3436 8.40143 5.46283 
15.7182 9.91688 7.33634 
14.4447 11.4436 5.62203 
18.6243 9.93694 4.22829 
17.0915 8.65104 5.65116 
18.4478 10.019 7.06663 
19.9639 8.51494 5.62195 
17.2205 11.4547 5.67831 
19.8339 11.4645 5.75605 
21.2979 10.0513 4.42036 
24.2427 10.1594 4.50669 
21.4351 9.88518 7.37007 
22.8581 8.60781 5.81821 
22.7545 11.5372 5.76783 
24.3381 10.2118 7.18418 
27.1587 10.1046 4.28081 
25.7373 8.84997 5.60487 
27.4069 10.021 7.29165 
25.6876 11.5499 5.80718 
1.53295 12.9276 4.29613 
1.50299 15.8652 4.30322 
1.37027 12.9118 7.14287 
1.35961 15.6892 7.08725 
2.98213 14.257 5.66329 
0.0925902 14.2795 5.60306 
4.31997 12.8449 4.23309 
4.42981 15.6555 4.46433 
7.26433 12.9791 4.18406 
7.21647 15.8167 4.30422 
4.33071 15.5598 7.32007 
4.26006 12.8067 7.16229 
7.04744 12.7954 7.07121 
5.75789 14.1367 5.70121 
7.03356 15.6609 7.18668 
9.97878 12.7471 4.30437 
10.0197 15.7054 4.39869 
9.92579 12.8352 7.08063 
8.70975 14.2692 5.85856 
10.0713 15.9249 7.09404 
11.3573 14.2792 5.65337 
12.8159 12.856 4.31802 
15.7099 12.9499 4.45509 
12.8089 15.892 4.28037 
16.027 15.7972 4.28408 
12.8883 13.06 7.07254 
15.8735 12.9886 7.195 
12.879 15.8505 7.09366 
14.2667 14.4491 5.70496 
15.756 15.8667 7.10713 
18.4578 12.8774 4.3363 
18.7099 15.8146 4.38237 
18.5669 13.0665 7.24134 
17.1567 14.4458 5.79883 
18.6295 15.8987 7.14531 
19.9969 14.3363 5.8675 
21.3142 13.0189 4.31145 
21.3934 15.7842 4.4097 
24.2974 13.0159 4.38439 
24.3615 15.7181 4.5195 
21.2629 12.7627 7.31237 
21.3066 15.7884 7.12011 
22.8027 14.2783 5.77068 
24.1822 12.8968 7.24565 
24.2819 15.8423 7.1916 
27.249 12.6402 4.35015 
27.2663 15.5778 4.2661 
27.393 12.8865 7.06706 
25.6947 14.2049 5.78213 
27.1561 15.6073 7.08767 
1.38243 18.5494 4.37448 
1.57099 18.5419 7.16599 
2.98005 17.0415 5.4964 
2.90298 20.0885 5.72967 
0.132262 19.8588 5.69739 
4.30267 18.6454 4.25114 
7.26137 18.4947 4.24143 
4.4387 18.5625 7.17813 
5.68646 17.079 5.66843 
7.08827 18.6274 7.00408 
5.90264 20.0325 5.6267 
10.0663 18.8118 4.10877 
8.41448 17.314 5.59915 
9.88193 18.5847 6.98921 
11.4045 17.3248 5.72992 
8.58717 19.9978 5.6369 
11.5398 20.0735 5.61739 
12.8746 18.6312 4.21467 
15.4131 18.6559 4.26785 
12.9633 18.547 7.01764 
14.3082 17.104 5.64068 
15.7154 18.726 7.1803 
14.3347 20.0462 5.83729 
18.7029 18.8052 4.29121 
17.1611 17.402 5.58448 
18.5488 18.5857 7.28733 
19.9868 17.472 5.52894 
17.1959 20.1607 5.74453 
20.0919 20.1995 5.57804 
21.3683 18.741 4.18341 
21.3335 18.7559 7.12511 
23.0276 17.2744 5.81399 
22.9148 19.9866 5.64671 
24.37 18.9239 7.11832 
24.8106 18.7417 4.36083 
27.3054 18.67 4.2606 
28.6637 17.0702 5.61196 
25.9085 17.1769 5.72696 
27.1672 18.731 7.26849 
25.849 20.1323 5.67998 
1.51387 21.4604 4.25885 
1.3788 24.3736 4.55413 
1.27215 21.557 7.19088 
2.802 22.966 5.83522 
1.40103 24.4698 7.16428 
0.109817 22.8244 5.72618 
4.26264 21.5409 4.39095 
7.15094 24.3624 4.37074 
4.38418 24.4238 4.39394 
4.25319 21.468 7.0425 
7.13946 21.4704 7.10419 
5.67024 22.8569 5.76846 
7.24072 24.3031 7.02785 
9.96697 21.4179 4.41401 
10.0753 24.4479 4.35404 
9.99474 21.3757 7.06417 
8.54464 22.8001 5.76058 
10.1204 24.3355 7.14194 
11.5417 22.9436 5.72281 
13.2014 21.3281 4.41625 
15.6848 21.4215 4.27627 
13.0168 24.2804 4.38442 
15.7396 24.2457 4.3592 
12.942 21.3623 7.23517 
15.7621 21.4381 7.2379 
14.4126 22.7746 5.83681 
15.7962 24.3622 7.13169 
12.841 24.1839 7.0976 
18.646 21.4785 4.14478 
18.65 21.5982 7.16063 
17.1479 23.0089 5.77282 
19.9422 22.8624 5.65464 
18.8303 24.5093 7.36596 
21.5419 21.5448 4.23315 
24.4002 21.4714 4.21334 
21.4765 24.3093 4.34766 
24.2916 24.2808 4.36585 
21.4709 21.592 7.1078 
22.8863 22.9115 5.60656 
24.3863 24.4826 7.09913 
24.1944 21.3729 7.00222 
21.4604 24.3339 7.08485 
27.1664 21.7343 4.27088 
27.2431 24.4701 4.38409 
27.3623 21.6777 7.16169 
25.6944 22.9771 5.91915 
27.3059 24.489 6.92124 
1.28865 27.521 4.27575 
1.57804 27.1769 7.24487 
2.92285 25.9554 5.74096 
0.0661288 26.1352 5.63609 
4.22508 27.2048 4.27734 
7.01192 27.2342 4.33134 
4.20658 24.668 7.0523 
4.29192 27.4136 7.2095 
5.80341 25.8512 5.68989 
7.19298 27.3627 7.26059 
9.84807 27.3244 4.34753 
11.5572 28.6702 5.68996 
8.53001 28.6041 5.77631 
8.51788 25.7554 5.70917 
9.96048 27.2059 7.16813 
11.3506 25.808 5.55585 
13.145 27.4391 4.19825 
15.732 27.3199 4.46369 
12.9344 27.2067 6.89204 
14.3463 25.7623 5.67078 
15.7223 27.2012 7.17615 
18.628 27.0735 4.31331 
20.2292 28.6216 5.89475 
17.2894 28.6307 5.76276 
17.2493 25.7347 5.88529 
18.7785 27.3699 7.21289 
20.2461 25.797 5.77173 
21.4222 27.1478 4.21783 
24.4093 27.48 4.39777 
21.6932 27.3525 7.15535 
22.9879 26.0666 5.65411 
24.4708 27.3382 7.14992 
27.166 27.28 4.44152 
25.7776 25.8039 5.65072 
27.4706 27.4704 7.05125 
2.72214 2.74505 8.66301 
0.211056 2.76385 8.62707 
1.51188 1.3678 9.98998 
2.77747 3.02101 11.6006 
2.9908 0.128001 11.4636 
0.00184572 2.85916 11.658 
5.72443 2.9859 8.45425 
5.91426 0.017592 8.73367 
4.46819 1.29273 9.92163 
7.25394 1.58025 9.82828 
5.7759 2.74196 11.4778 
8.63372 2.9609 8.62372 
11.6637 2.78803 8.6435 
10.0644 1.27212 10.0196 
8.60585 2.82008 11.4875 
11.4272 2.80092 11.4988 
14.209 3.05144 8.74353 
13.1082 1.39887 10.0797 
16.0994 1.44046 10.0978 
14.265 2.75922 11.6495 
17.3344 2.98873 8.6735 
20.1031 3.06214 8.54883 
17.4334 0.0389386 8.39765 
18.6924 1.46418 9.95271 
17.1474 2.91084 11.438 
20.1523 2.97786 11.4629 
22.9875 2.95114 8.57938 
23.2423 0.136779 8.64679 
21.6448 1.58719 10.0419 
24.3699 1.7496 10.2598 
23.0225 2.99193 11.6358 
25.883 2.8488 8.62986 
25.7296 0.0527356 8.64952 
27.1117 1.51858 9.97456 
25.968 2.94105 11.5553 
27.4284 4.08574 10.0485 
3.04446 5.74341 8.75581 
1.38735 4.29354 10.1957 
1.26042 7.17956 10.2324 
2.91486 5.79637 11.558 
5.53593 5.7555 8.78835 
4.39354 7.22632 10.234 
7.18698 4.29002 10.0724 
4.26296 4.29451 10.0745 
7.08085 7.15788 10.2396 
5.67026 5.69842 11.5816 
8.49018 5.52025 8.68874 
11.5247 5.8527 8.57087 
10.0564 4.30856 9.93779 
9.90594 7.28726 9.98739 
8.91556 5.63034 11.6193 
11.4965 5.82428 11.3793 
14.4555 5.78884 8.67492 
15.4885 4.39999 10.3218 
13.0025 4.32723 10.1126 
12.7996 7.26945 10.0239 
15.7872 7.30088 10.0469 
14.1714 6.04007 11.516 
17.23 5.84569 8.6851 
20.0005 5.80043 8.67122 
18.7029 4.41816 10.0654 
18.5498 7.15944 10.0246 
17.0958 5.73288 11.575 
20.0455 5.74039 11.6278 
22.9996 5.58981 8.68103 
21.6007 4.36626 10.0305 
21.5533 7.04109 10.018 
22.99 5.96058 11.6168 
24.4663 7.30402 10.0181 
24.5604 4.39753 10.1554 
28.5862 5.71821 8.64715 
25.9022 5.98207 8.59422 
28.5297 5.70802 11.4979 
27.3345 7.47625 10.0603 
26.1339 5.73693 11.488 
2.81149 8.60644 8.7639 
2.87181 11.4599 8.72632 
0.118519 11.4526 8.59713 
0.115376 8.63628 8.56503 
1.30962 10.1295 10.0643 
2.91525 8.66688 11.5229 
2.95581 11.588 11.5185 
0.0402081 11.4794 11.3686 
5.8249 8.46335 8.68455 
5.75279 11.3978 8.6407 
4.21429 10.1413 9.95152 
7.25804 10.0878 9.9601 
5.82489 8.63265 11.5422 
5.85673 11.4251 11.3662 
8.52118 8.41544 8.55657 
11.4521 8.60736 8.50007 
8.66656 11.4153 8.51097 
11.4325 11.5444 8.37287 
10.1453 10.0596 9.90067 
8.58212 8.58303 11.4893 
11.4724 8.56373 11.4591 
8.60955 11.617 11.2733 
11.4914 11.3884 11.5548 
14.5195 8.44337 8.45202 
14.1578 11.598 8.56401 
12.7823 10.0353 9.92552 
15.5586 10.1358 9.94458 
14.335 8.70747 11.2487 
14.436 11.5161 11.7074 
17.1756 8.6081 8.57893 
19.9282 8.73164 8.66334 
17.1753 11.5616 8.68401 
19.9335 11.4533 8.47833 
18.5172 10.0245 9.88681 
17.3361 8.6479 11.3252 
20.0048 8.56423 11.3989 
17.3396 11.6984 11.1645 
19.8984 11.6024 11.3945 
23.1107 8.73371 8.6266 
22.8363 11.5604 8.75955 
21.3019 10.1017 9.88816 
23.0224 8.68816 11.518 
22.9197 11.4711 11.5385 
24.4192 10.1206 10.0647 
25.7663 8.88978 8.63332 
25.9255 11.3697 8.55868 
28.687 8.62731 11.5079 
27.2153 10.057 10.001 
25.7983 8.88771 11.6269 
25.8915 11.6094 11.4062 
2.87105 14.2862 8.60982 
1.53584 12.9201 10.0817 
1.41716 15.7759 9.95622 
3.01075 14.392 11.446 
5.58746 14.3949 8.58585 
4.40401 15.7016 10.0275 
4.27218 12.947 10.0984 
7.1753 12.8402 10.002 
7.30126 15.762 10.0913 
5.69242 14.2447 11.4579 
8.54819 14.2192 8.64368 
11.3962 14.2655 8.41377 
10.1413 12.8207 9.90293 
10.218 15.5325 9.99345 
8.64953 14.2281 11.4375 
11.609 14.2554 11.617 
14.3353 14.4708 8.27032 
12.7397 13.0144 9.94006 
15.7648 12.9946 10.0714 
12.9575 15.7427 10.1744 
15.7561 15.7864 10.0045 
14.3268 14.4188 11.6273 
17.0854 14.4535 8.61373 
20.0439 14.4327 8.62653 
18.4314 13.1595 10.0631 
18.8476 15.8348 9.95369 
17.0365 14.6301 11.6098 
19.9933 14.3663 11.4335 
22.9334 14.4091 8.61427 
21.4177 12.9222 10.0197 
21.4584 15.9194 10.1452 
22.9456 14.2878 11.3077 
24.3945 15.7668 10.0262 
24.4962 12.8963 10.0209 
28.6813 14.5009 8.56906 
25.7568 14.2343 8.79523 
28.5944 14.5043 11.3414 
27.4716 12.9435 9.94149 
27.3188 15.7917 10.0781 
25.8046 14.3069 11.5644 
3.06846 17.2451 8.78968 
2.91474 20.0656 8.66912 
0.0776005 20.3079 8.68869 
0.087584 17.1584 8.40658 
1.45961 18.554 9.89048 
2.83154 17.2992 11.3514 
2.90789 20.1683 11.553 
0.226387 20.1587 11.5897 
5.81526 17.0715 8.52284 
5.62744 20.0644 8.54232 
4.41232 18.6969 10.0535 
7.17937 18.4913 9.99872 
5.6676 17.1355 11.4675 
5.78505 20.043 11.4428 
8.63047 17.1371 8.45429 
11.4541 17.1994 8.6555 
8.50768 20.0733 8.73205 
11.4234 20.0577 8.50824 
10.0844 18.6902 10.042 
8.75968 17.0885 11.4884 
11.5595 17.0941 11.6024 
8.50782 20.1626 11.4365 
11.2252 20.0546 11.7038 
14.1578 17.2836 8.70085 
14.3291 20.0588 8.72059 
12.9723 18.648 10.2598 
15.8845 18.6306 10.2484 
14.3088 17.3449 11.4177 
14.3722 20.2262 11.6212 
17.0967 17.0625 8.73609 
19.993 17.3185 8.56629 
17.092 20.1781 8.70772 
20.0729 20.2071 8.73945 
18.511 18.6804 10.0039 
17.159 17.0934 11.5969 
20.0948 17.2936 11.5463 
17.1993 20.2376 11.5974 
20.0046 20.1225 11.4683 
22.8066 17.4275 8.71111 
22.8726 20.2312 8.5597 
21.5287 18.623 10.0732 
23.0766 17.179 11.3722 
23.002 20.237 11.3713 
24.3652 18.7956 10.0101 
25.7488 17.1694 8.62339 
25.8541 20.3911 8.61678 
28.6762 17.4312 11.3976 
27.3132 18.8335 9.83722 
25.8311 17.2948 11.3714 
25.8397 20.186 11.3981 
2.84846 22.9293 8.65633 
0.207882 22.9932 8.64937 
1.44856 24.3188 9.89518 
1.52996 21.4915 10.1237 
2.94775 22.8665 11.631 
0.052821 22.8559 11.6064 
5.67846 23.0368 8.48817 
4.32855 24.448 10.05 
7.40012 24.3838 10.0175 
4.23371 21.6404 9.82846 
7.10537 21.7107 9.91755 
5.78465 22.7789 11.4526 
8.74167 23.0247 8.49622 
11.4659 22.7821 8.36931 
10.2385 24.4331 10.1184 
9.96557 21.6201 9.99731 
8.8106 23.0176 11.6683 
11.4285 23.0505 11.4283 
14.5127 22.8695 8.66656 
14.2289 22.9847 11.802 
12.775 21.4898 10.0047 
15.7176 21.6149 10.4113 
12.9136 24.2684 10.0191 
15.7891 24.3782 10.0742 
17.1923 23.1062 8.69699 
20.0191 22.9187 8.61858 
18.7696 24.5739 10.1406 
18.5299 21.7157 9.98919 
17.3243 23.1195 11.4542 
20.2485 23.0617 11.5082 
22.8897 23.1192 8.58387 
21.6341 21.4515 9.99185 
21.5693 24.4468 10.0236 
24.4157 21.6903 9.87473 
22.8145 22.9694 11.4558 
24.6092 24.4821 10.0556 
25.9185 23.1158 8.58652 
27.4477 21.6432 10.1047 
27.4295 24.4466 9.90114 
25.9365 23.0028 11.3511 
2.91771 28.707 8.63586 
2.92783 25.8804 8.77114 
0.177634 25.9781 8.68316 
0.276677 25.8585 11.4057 
1.52779 27.4719 10.0315 
2.94283 26.0233 11.4479 
5.9377 25.7857 8.55883 
7.35679 27.2326 10.0864 
5.89894 25.8395 11.4101 
4.38021 27.2819 9.91136 
6.06269 28.6439 11.1808 
11.6037 28.5935 8.53082 
8.73718 28.645 8.69598 
8.78963 25.772 8.68671 
11.4044 25.7606 8.47578 
10.0676 27.2289 10.2163 
8.83583 25.7877 11.5488 
8.78658 28.6846 11.2976 
11.5188 28.6977 11.3869 
11.5041 25.9322 11.493 
14.3862 28.6895 8.70212 
14.3635 25.6933 8.65188 
12.8652 27.3034 9.92748 
15.7239 27.3049 10.0528 
14.4095 25.8215 11.3387 
14.3608 28.5719 11.4285 
20.2454 28.6789 8.72846 
17.2855 26.0896 8.61654 
20.3788 25.7876 8.73366 
20.1696 26.004 11.5703 
18.693 27.1817 10.079 
17.213 25.8744 11.397 
17.2925 28.5421 11.5819 
20.2388 28.6206 11.656 
23.0976 25.838 8.58022 
23.1624 28.6905 11.4988 
23.0534 25.8537 11.2815 
24.5138 27.2292 10.0551 
21.6652 27.5036 10.0476 
28.627 28.6079 8.64274 
25.931 26.0139 8.49331 
25.8457 28.7117 11.5316 
25.791 25.8688 11.4193 
27.3814 27.1955 10.1845 
28.7066 28.6674 11.6928 
1.52526 1.43785 13.0187 
1.52512 1.22971 15.5953 
0.101592 2.97509 14.6041 
2.8853 2.84539 14.3833 
4.48221 1.42361 12.9506 
7.43796 1.39722 13.1141 
4.35171 4.07457 12.9228 
6.11099 2.73399 14.3242 
4.26444 1.35968 15.7936 
7.55381 1.46351 15.9582 
10.2309 1.38048 12.8547 
10.1438 4.06837 12.9657 
10.1661 1.52007 15.9361 
11.6083 2.87687 14.526 
8.91855 2.82097 14.4629 
8.7492 0.0909929 14.3757 
12.8785 1.34564 12.9503 
15.632 1.37694 12.9286 
13.0991 1.31765 15.9127 
15.9433 1.45498 15.9529 
14.3492 0.0321656 14.4339 
14.5059 2.73824 14.4717 
18.7586 1.57217 13.0408 
18.8809 1.53364 15.7831 
20.157 2.85515 14.3596 
17.2277 0.13073 14.4319 
17.2294 2.88312 14.4355 
21.602 1.5639 13.0384 
24.3673 1.40556 12.7888 
21.6972 1.43991 15.7409 
24.5884 1.63129 15.657 
23.0401 0.121006 14.4193 
22.9429 3.18162 14.484 
25.9281 2.98068 14.2606 
27.1382 1.46134 12.9584 
27.2444 1.71081 15.7738 
25.7467 0.0727736 14.4331 
1.33655 4.24239 13.0334 
1.45716 7.15853 12.9046 
2.94927 5.57038 14.1972 
0.0167605 5.61505 14.3661 
1.32136 4.47619 15.9792 
1.43941 6.86861 15.8227 
4.53014 7.18426 12.802 
7.26969 4.30566 12.7262 
7.18942 7.1957 13.0129 
5.69875 5.54334 14.2666 
4.30538 4.21729 15.6736 
4.52003 7.05986 15.5572 
7.21778 4.30992 15.6915 
7.30522 7.0968 15.8211 
10.0103 7.09547 12.936 
10.1608 4.33218 15.7261 
10.0434 7.1341 15.843 
11.4563 5.67042 14.4005 
8.67814 5.60523 14.4321 
15.8688 4.36431 12.9633 
13.0687 4.40049 13.2065 
13.004 7.41505 12.9526 
15.7381 7.2268 13.0256 
14.4226 5.81074 14.308 
13.0501 4.38964 15.8307 
15.9527 4.33873 15.7669 
13.0225 7.255 15.7535 
15.6179 7.34025 15.864 
17.3464 5.90529 14.3442 
18.6308 4.30178 12.8146 
18.5181 7.21921 12.7859 
20.302 5.6607 14.3411 
18.6734 4.23139 15.9599 
18.6982 7.19475 15.6798 
21.6794 4.53141 13.0405 
24.3288 4.58343 13.0254 
21.5403 7.23152 13.0198 
24.5934 7.37331 12.7802 
21.4802 4.35552 15.9436 
24.2474 4.42822 15.9833 
21.426 7.29005 15.7039 
24.3016 7.395 15.6097 
23.1462 5.77445 14.5276 
25.9388 5.76512 14.3217 
27.4607 4.29236 12.9842 
27.2768 7.32366 12.8817 
27.2765 4.49104 15.96 
27.4078 7.15486 15.5422 
1.42196 10.0929 13.0692 
0.00340044 11.6755 14.5957 
1.36561 10.1523 15.8463 
2.76771 8.48047 14.4929 
2.85814 11.4552 14.3714 
0.205333 8.51789 14.4345 
5.84802 8.54764 14.3312 
4.29934 10.0225 12.9487 
7.26827 10.1656 12.8424 
5.76319 11.4565 14.2557 
4.34072 9.90319 15.744 
7.03851 10.2239 15.6745 
10.1364 9.86935 12.9691 
11.4425 11.3415 14.3294 
8.65105 11.4171 14.2343 
10.1622 9.84862 15.8617 
8.47469 8.48036 14.4421 
11.5586 8.51703 14.3908 
14.4626 11.6199 14.3381 
12.9185 10.0682 13.0587 
15.7566 10.081 12.7383 
14.4832 8.62729 14.2476 
13.1072 10.0677 15.8277 
15.8522 9.92232 15.8304 
18.5512 10.259 12.8372 
20.1143 8.70578 14.2663 
17.168 11.4495 14.3169 
18.5285 10.0446 15.6224 
17.2966 8.58545 14.4106 
20.0443 11.5247 14.3746 
21.537 10.1287 12.8579 
24.2219 10.0475 12.9091 
21.3579 10.0756 15.7916 
24.4792 10.0866 15.7672 
22.9628 8.83245 14.3856 
22.9826 11.4378 14.455 
27.5213 10.1055 12.987 
27.275 10.1902 15.7738 
25.8156 8.69453 14.4993 
25.8086 11.6318 14.4058 
1.25589 13.1111 12.7916 
1.45195 15.7974 12.7573 
2.67819 14.4609 14.1558 
1.51492 13.0682 15.7474 
1.56533 15.9324 15.6364 
0.0839266 14.5008 14.4867 
4.41461 15.7057 12.9928 
4.23371 12.8123 13.1318 
7.17669 12.9344 12.9664 
7.33429 15.6901 12.9495 
4.22417 13.1069 15.7393 
4.37162 15.7175 15.5241 
7.26407 12.7812 15.8007 
7.10458 15.8293 15.6607 
5.78611 14.1684 14.4256 
8.74208 14.3708 14.35 
10.0291 12.706 12.947 
10.1161 15.6954 12.7593 
10.1389 12.7653 15.8652 
10.0073 15.8974 15.5886 
11.5546 14.3698 14.4974 
13.1175 12.9146 13.0205 
15.8058 12.9542 12.8877 
12.9201 15.5982 12.9687 
15.6484 16.0187 13.0513 
12.9439 12.8516 15.8331 
15.8001 13.0577 15.7914 
12.8356 15.7986 15.8664 
15.8306 15.7958 15.8005 
14.3367 14.2436 14.429 
20.217 14.1785 14.1812 
18.4961 12.8221 13.0079 
18.8125 15.7023 12.9616 
18.754 12.9976 15.8101 
18.8515 15.7567 15.7633 
17.205 14.349 14.443 
21.5295 12.8087 12.9403 
21.5302 15.798 12.6439 
24.4329 12.925 12.7917 
22.9256 14.4125 14.2143 
21.5725 12.7899 15.8489 
21.5195 15.8063 15.5108 
24.5496 16.0362 15.6343 
24.4353 13.0993 15.6681 
25.7367 14.4191 14.2631 
24.6181 15.913 12.8859 
27.2087 13.0371 12.9383 
27.3617 15.8005 12.8977 
27.2094 13.0639 15.7594 
27.3241 15.9238 15.7914 
2.98424 20.0821 14.2904 
0.0470789 17.2944 14.2457 
1.4917 18.4759 12.8965 
3.12705 17.1794 14.1908 
0.108642 20.0582 14.4702 
1.64617 18.6622 15.7054 
4.43778 18.6523 12.7856 
7.24003 18.584 12.7956 
5.88072 17.1664 14.2882 
5.8613 20.0603 14.1286 
4.49909 18.7376 15.6164 
7.38285 18.6177 15.6977 
11.4071 17.3215 14.3407 
8.59952 17.3204 14.1782 
10.1326 18.6312 12.9871 
10.0899 18.6455 15.8649 
11.4992 19.9125 14.6559 
8.61427 20.0783 14.3782 
12.901 18.6063 12.8662 
15.7359 18.7458 12.9508 
14.2699 17.2985 14.4504 
12.9177 18.7109 15.8179 
15.6488 18.6781 16.0115 
14.2921 19.9274 14.489 
20.1491 17.2404 14.1482 
17.197 20.1356 14.3444 
18.5344 18.8052 12.9816 
18.5337 18.6614 15.7749 
17.2909 17.1173 14.3961 
20.0336 19.9785 14.4045 
23.1114 17.1438 14.2312 
23.0349 20.0497 14.1451 
21.4808 18.6401 12.8612 
24.4104 18.6968 12.7989 
21.5038 18.7753 15.6746 
24.4933 18.6286 15.6241 
25.8133 20.2043 14.137 
26.0391 17.2602 14.2433 
27.375 18.6344 12.825 
27.324 18.6328 15.761 
1.58213 21.5922 13.0388 
1.53157 24.4212 12.9148 
0.159371 23.076 14.1899 
3.10033 23.0565 14.2251 
1.58383 21.5419 15.7541 
1.48773 24.4183 15.93 
4.51668 21.5181 12.9354 
7.21351 21.4958 12.9148 
4.42334 24.4182 12.6977 
7.35752 24.3036 12.9349 
5.78659 23.1036 14.3162 
4.43443 21.5837 15.6804 
7.24441 21.401 15.7818 
7.35637 24.506 15.6147 
4.30249 24.2611 15.9645 
11.6181 22.8836 14.3292 
10.2818 24.4229 12.9034 
10.0509 21.6648 13.0949 
8.69023 23.0182 14.4712 
10.1093 21.373 15.8263 
10.0251 24.5423 15.7211 
15.7825 24.2561 12.9988 
15.8488 21.5665 12.9905 
12.9323 24.3617 12.9662 
12.8614 21.4833 12.9907 
13.0837 21.4495 15.8778 
15.8444 21.5312 15.9084 
15.794 24.4382 16.1449 
13.0406 24.4016 15.8576 
14.4779 22.9221 14.6088 
18.7187 24.5847 12.7646 
18.7611 21.7114 12.8946 
20.0546 23.0048 14.3113 
18.6735 21.6059 15.7566 
18.5293 24.33 15.928 
17.1571 23.0801 14.4177 
22.9438 23.0455 14.2551 
24.3163 24.2725 12.7839 
21.4153 24.4245 12.8552 
24.4457 21.7231 12.8335 
21.397 21.4528 12.9644 
21.433 21.4163 15.5856 
24.2716 21.3672 15.7614 
24.4075 24.22 15.738 
21.5901 24.2683 15.764 
27.2593 24.5012 12.8085 
27.3433 21.451 12.926 
25.8419 22.8338 14.336 
27.3837 21.5135 15.8079 
27.348 24.1858 15.5565 
1.47161 27.2727 13.0346 
2.91633 25.6457 14.1565 
3.03483 28.5664 14.3825 
1.3992 27.3252 15.6978 
4.42536 27.3621 12.8923 
7.25113 27.2784 12.8677 
4.34344 27.2003 15.6992 
7.3591 27.3469 15.8848 
5.76857 28.5869 14.4179 
5.80608 25.6247 14.3798 
10.0772 27.2968 12.956 
10.0859 27.2304 15.8407 
11.4763 25.9662 14.453 
8.68205 25.9634 14.3804 
11.4997 28.5294 14.3881 
13.022 27.2211 12.7902 
15.6762 27.2338 12.9624 
13.0569 27.2814 15.9382 
15.8604 27.2253 15.6951 
14.3709 25.7715 14.3901 
17.182 25.7429 14.3487 
18.4789 27.2714 13.0824 
20.1317 28.4743 14.1787 
19.9229 25.8614 14.3419 
18.722 27.3795 15.8 
21.8439 27.2618 12.8418 
24.4377 27.2161 12.9852 
21.5936 27.2202 15.6575 
24.5547 27.3376 15.9 
23.1037 25.7108 14.4313 
27.1813 27.3077 12.9449 
25.774 25.7992 14.3129 
28.5868 25.8965 14.3195 
27.362 27.1028 15.7462 
28.6629 28.7021 14.4689 
1.54406 1.54238 18.7069 
2.86762 2.79824 17.1144 
0.0409818 2.72542 17.2837 
2.98013 2.8747 20.0229 
0.0864655 0.00209305 20.0498 
0.0546651 3.01875 20.1423 
4.44015 1.49258 18.5867 
7.30479 1.42787 18.6123 
5.77586 2.79014 17.0781 
5.85076 0.0759949 17.1534 
5.80541 2.87354 20.0999 
5.8462 0.00548735 20.0167 
9.94984 1.44923 18.5575 
8.61226 2.90326 17.2496 
11.7159 2.97899 17.3019 
8.55982 2.85253 20.078 
11.3956 2.70152 20.0228 
8.70621 0.136486 20.3199 
11.3347 0.0222498 19.9564 
12.9188 1.44536 18.5521 
16.0004 1.45889 18.7006 
14.4348 2.76387 17.0775 
14.4079 2.69988 19.9902 
14.3151 0.100275 20.1 
18.794 1.42003 18.6771 
17.3442 2.81862 17.4017 
20.2585 2.93888 17.3239 
20.0904 0.00971569 17.2247 
17.3422 2.78363 20.1328 
20.2315 2.75493 20.233 
21.6274 1.37025 18.7252 
23.0813 2.79879 17.2931 
24.2639 1.39795 18.6498 
23.1322 2.96526 20.0623 
27.3285 1.35524 18.4686 
25.8621 2.96778 17.2554 
25.8793 2.89124 19.8366 
1.63623 4.50901 18.508 
1.54404 7.13714 18.8374 
3.1723 5.8716 17.2109 
3.06616 5.77179 19.9029 
0.00674907 5.66264 19.9795 
4.48641 7.29065 18.7206 
4.42323 4.25822 18.5963 
7.23657 4.26857 18.645 
5.81607 5.7441 17.1096 
7.17225 6.93206 18.6521 
5.75974 5.6853 20.1691 
10.201 4.19366 18.6228 
8.69288 5.6523 17.3608 
10.0423 7.03776 18.753 
11.5033 5.74956 17.1954 
8.54674 5.5909 20.0937 
11.6432 5.86156 20.201 
13.0879 4.38455 18.9736 
15.808 4.26425 18.7871 
12.9342 7.26 18.7835 
14.3399 5.73619 17.2554 
15.8278 7.092 18.7423 