ITEM: TIMESTEP
47038
ITEM: NUMBER OF ATOMS
2001
ITEM: BOX BOUNDS pp pp pp
0.0000000000000000e+00 2.8712000000000000e+01
0.0000000000000000e+00 2.8712000000000000e+01
0.0000000000000000e+00 2.8712000000000000e+01
ITEM: ATOMS x y z c_cna 
1.4377 1.43103 1.43254 3 
2.87728 2.86337 2.87136 3 
0.00584427 2.86064 2.87528 3 
4.30835 1.43277 1.43131 3 
7.1765 1.43618 1.43062 3 
5.74279 2.87005 2.86799 3 
10.0455 1.43758 1.43039 3 
8.61101 2.87292 2.86643 3 
11.4805 2.87357 2.86608 3 
11.4803 0.00200776 2.86645 3 
8.61118 0.00154053 2.86654 3 
12.9148 1.437 1.43072 3 
15.7838 1.4346 1.43173 3 
14.3499 2.87237 2.86684 3 
14.3498 0.000984203 2.86686 3 
18.6551 1.43311 1.43198 3 
17.2188 2.86911 2.86887 3 
20.0921 2.86845 2.86714 3 
21.5286 1.43357 1.43072 3 
22.9623 2.86552 2.87039 3 
24.4012 1.43384 1.43209 3 
27.276 1.43271 1.43343 3 
25.8386 2.86403 2.87264 3 
1.44795 4.29131 1.43657 3 
1.44536 7.164 1.44554 3 
2.8778 5.73508 2.87579 3 
0.0369594 5.70125 2.90634 3 
4.30859 4.30352 1.43268 3 
7.17575 4.30785 1.43079 3 
4.30544 7.17693 1.43352 3 
7.17455 7.17977 1.43059 3 
5.74141 5.74251 2.86827 3 
10.0455 4.30916 1.43005 3 
10.0454 7.18059 1.42953 3 
8.61052 5.74463 2.86601 3 
11.4809 5.74521 2.86535 3 
15.7843 4.30646 1.43168 3 
12.9156 4.30888 1.43015 3 
12.9166 7.18073 1.42907 3 
15.7868 7.1801 1.42957 3 
14.3512 5.74483 2.86573 3 
18.6505 4.29972 1.43655 3 
18.6536 7.17608 1.43404 3 
17.2203 5.74264 2.86773 3 
20.0943 5.74153 2.86503 3 
20.0764 5.72423 0.00863009 3 
24.3986 4.29752 1.43842 3 
21.5292 4.30162 1.43011 3 
21.5373 7.17864 1.422 3 
22.9506 5.72423 2.88297 3 
24.3688 7.13515 1.48002 3 
27.2859 4.29204 1.44328 3 
27.3705 7.07677 1.52782 3 
25.8383 5.71299 2.89222 3 
25.847 5.70925 0.00428776 3 
1.42967 10.0518 1.43035 3 
2.87047 8.6162 2.86882 3 
2.87044 11.4875 2.86884 3 
0.00173885 11.4772 2.87118 3 
0.00178088 8.62644 2.87112 3 
0.00650055 11.5185 0.0168112 3 
0.00648073 8.58512 0.0167962 3 
4.30308 10.0519 1.43135 3 
7.17403 10.0519 1.43013 3 
5.73973 8.61585 2.86668 3 
5.73973 11.4879 2.86667 3 
10.0454 10.0518 1.42925 3 
8.61012 8.6162 2.86537 3 
11.4812 8.61637 2.86472 3 
8.61012 11.4875 2.86539 3 
11.4811 11.4873 2.86475 3 
12.917 10.0518 1.42858 3 
15.788 10.0518 1.42831 3 
14.3522 8.61641 2.86466 3 
14.3521 11.4872 2.86467 3 
20.0826 11.4971 0.00351078 3 
18.6573 10.0519 1.43012 3 
17.2228 8.61621 2.8654 3 
20.0991 8.61662 2.86024 3 
17.2228 11.4875 2.86538 3 
20.0991 11.4872 2.86024 3 
20.0826 8.60671 0.00348973 3 
21.547 10.0519 1.41235 3 
22.9557 8.60669 2.87677 3 
22.9558 11.4971 2.87682 3 
24.4057 10.0518 1.53271 5 
25.9871 8.21419 0.144408 5 
27.2214 10.0518 1.3787 5 
25.8594 8.58517 2.87579 3 
25.8594 11.5185 2.87582 3 
25.9872 11.8894 0.144385 5 
1.44527 12.9397 1.44561 3 
1.44797 15.8124 1.43666 3 
2.8778 14.3687 2.87579 3 
0.03693 14.4025 2.90638 3 
4.30857 15.8003 1.43275 3 
4.30541 12.9268 1.43352 3 
7.17459 12.924 1.43064 3 
7.17579 15.796 1.43088 3 
5.74143 14.3613 2.86826 3 
10.0455 12.9231 1.4296 3 
10.0455 15.7947 1.43021 3 
8.61054 14.3592 2.86607 3 
11.4809 14.3586 2.86543 3 
12.9165 12.9229 1.42917 3 
15.7867 12.9235 1.42961 3 
12.9154 15.795 1.43029 3 
15.7841 15.7973 1.43176 3 
14.3511 14.3589 2.86575 3 
18.6536 12.9277 1.43405 3 
18.6504 15.804 1.43662 3 
17.2202 14.3611 2.86771 3 
20.0943 14.3622 2.86506 3 
20.0763 14.3795 0.00866393 3 
21.5373 12.9251 1.42204 3 
21.5292 15.8021 1.43017 3 
22.9507 14.3795 2.88301 3 
24.3689 12.9685 1.48003 3 
24.3987 15.8062 1.43847 3 
27.3705 13.0269 1.52788 3 
27.2859 15.8117 1.44337 3 
25.8383 14.3907 2.89227 3 
25.847 14.3944 0.00433686 3 
1.43775 18.6728 1.4327 3 
2.87732 17.2404 2.87145 3 
2.87197 20.106 2.86832 3 
0.00589903 17.2431 2.87536 3 
4.30839 18.6711 1.43146 3 
7.17651 18.6677 1.43075 3 
5.74281 17.2338 2.86806 3 
5.74228 20.1044 2.86732 3 
10.0455 18.6664 1.43054 3 
8.61103 17.231 2.86656 3 
11.4805 17.2304 2.86623 3 
8.61118 20.1024 2.86665 3 
11.4803 20.102 2.86657 3 
12.9147 18.667 1.43086 3 
15.7837 18.6692 1.43189 3 
14.3498 17.2315 2.86696 3 
14.3498 20.103 2.86699 3 
18.655 18.6706 1.43214 3 
17.2187 17.2347 2.86897 3 
20.0921 17.2352 2.86724 3 
17.2205 20.1039 2.86721 3 
20.0927 20.1041 2.86668 3 
21.5286 18.6701 1.43082 3 
24.4012 18.6698 1.43216 3 
22.9624 17.2381 2.87049 3 
22.9647 20.1043 2.86728 3 
28.7113 20.1056 2.86888 3 
27.276 18.671 1.43352 3 
25.8386 17.2397 2.87272 3 
25.8377 20.1045 2.86811 3 
1.43422 21.5392 1.4313 3 
2.86977 22.9737 2.86717 3 
1.43335 24.4079 1.43088 3 
4.30506 24.408 1.43071 3 
4.30595 21.5393 1.4309 3 
7.17618 21.5383 1.43063 3 
5.74099 22.9735 2.86685 3 
7.17577 24.408 1.43054 3 
10.0454 21.5376 1.43063 3 
8.61097 22.973 2.86661 3 
11.4804 22.9729 2.86654 3 
10.0454 24.408 1.43055 3 
12.9148 21.5379 1.43079 3 
15.7852 21.5386 1.4309 3 
14.3504 22.9731 2.86654 3 
12.9151 24.408 1.43061 3 
15.7858 24.408 1.43049 3 
18.6568 21.5387 1.43061 3 
17.2214 22.9732 2.86634 3 
20.0932 22.9732 2.8661 3 
18.6573 24.4079 1.43019 3 
21.5291 21.5385 1.43031 3 
24.4012 21.5382 1.43074 3 
21.5293 24.4078 1.4301 3 
22.9651 22.9731 2.86629 3 
24.4012 24.4078 1.43039 3 
28.7096 22.9734 2.86715 3 
27.2737 21.5385 1.43127 3 
25.8373 22.9731 2.86673 3 
27.2733 24.4078 1.43079 3 
2.87191 28.7099 2.86817 3 
1.43416 27.2766 1.43116 3 
2.86971 25.8423 2.86709 3 
5.74224 28.7115 2.86719 3 
4.30592 27.2766 1.43079 3 
7.17619 27.2776 1.43052 3 
5.74098 25.8425 2.86679 3 
10.0455 27.2784 1.43052 3 
8.61097 25.843 2.86652 3 
11.4804 25.8432 2.86648 3 
12.9148 27.2781 1.43068 3 
15.7852 27.2773 1.43076 3 
14.3504 25.8429 2.86647 3 
17.2205 28.7119 2.86708 3 
20.0927 28.7115 2.86659 3 
18.6568 27.277 1.43048 3 
17.2214 25.8427 2.86627 3 
20.0932 25.8425 2.86604 3 
22.9647 28.7113 2.86719 3 
21.5291 27.2772 1.43023 3 
22.9651 25.8425 2.86626 3 
24.4013 27.2774 1.43068 3 
28.7113 28.7102 2.86878 3 
25.8377 28.7111 2.86802 3 
28.7096 25.8423 2.86711 3 
27.2738 27.2772 1.43118 3 
25.8373 25.8425 2.86669 3 
1.43852 1.4298 4.30793 3 
1.43591 1.43233 7.17852 3 
2.87715 2.86414 5.74657 3 
0.00185284 2.86336 5.74657 3 
4.30918 1.43235 4.30549 3 
7.17706 1.43613 4.30322 3 
4.3084 1.43353 7.1779 3 
7.17698 1.43669 7.17514 3 
5.74324 2.8705 5.74097 3 
10.0459 1.43781 4.30218 3 
10.046 1.43818 7.17358 3 
8.61139 2.87322 5.73834 3 
11.4809 2.874 5.7375 3 
11.4807 0.00239212 5.7379 3 
8.61145 0.0017281 5.73851 3 
12.9153 1.43765 4.30223 3 
15.785 1.43607 4.30302 3 
12.9158 1.43831 7.17311 3 
15.7861 1.43763 7.17313 3 
14.3508 2.87349 5.73765 3 
14.3504 0.0018218 5.73797 3 
18.6565 1.43501 4.30271 3 
18.6561 1.43595 7.1743 3 
17.2214 2.87229 5.73784 3 
20.0903 2.86906 5.74055 3 
17.2212 0.00101515 5.73794 3 
21.5272 1.43312 4.30427 3 
24.4003 1.43223 4.30557 3 
21.5274 1.43451 7.17554 3 
24.4 1.43349 7.1766 3 
22.9622 2.86672 5.74278 3 
27.275 1.431 4.30709 3 
27.2737 1.43271 7.17763 3 
25.837 2.86495 5.74457 3 
1.45075 4.28948 4.32015 3 
1.44029 7.18009 4.30967 3 
1.43815 4.3034 7.17942 3 
1.43524 7.17967 7.1761 3 
2.8741 5.74226 5.74349 3 
0.0062951 5.73508 5.74712 3 
4.30679 7.1797 4.30473 3 
7.17661 4.30796 4.30319 3 
4.31013 4.30342 4.30769 3 
7.17564 7.18034 4.30216 3 
4.30657 7.18018 7.17598 3 
4.30765 4.3072 7.17706 3 
7.17648 4.30897 7.17452 3 
5.74184 5.74409 5.73967 3 
7.17604 7.1807 7.17389 3 
10.0459 4.3094 4.30167 3 
10.0458 7.18084 4.30099 3 
10.046 4.30979 7.1731 3 
8.611 5.74506 5.73761 3 
10.046 7.18101 7.17261 3 
11.4811 5.74546 5.73683 3 
15.7857 4.30832 4.30248 3 
12.9159 4.3095 4.30155 3 
12.9165 7.18099 4.30073 3 
15.7872 7.18078 4.30107 3 
12.9162 4.30993 7.17261 3 
15.7869 4.30954 7.17248 3 
12.9165 7.18111 7.17212 3 
14.3516 5.74539 5.73684 3 
15.7877 7.18107 7.17173 3 
18.6571 4.30673 4.30222 3 
18.6597 7.18033 4.29966 3 
18.6568 4.30824 7.17363 3 
17.2228 5.74487 5.73654 3 
18.6583 7.18073 7.17227 3 
20.0916 5.74261 5.73912 3 
21.5227 4.29972 4.30887 3 
24.3973 4.29556 4.31312 3 
21.5253 7.17606 4.30581 3 
24.4014 7.17099 4.30915 3 
21.5275 4.30637 7.17521 3 
24.4004 4.30482 7.17634 3 
21.5297 7.18006 7.17273 3 
22.963 5.73971 5.74154 3 
24.4023 7.17833 7.173 3 
27.2791 4.29134 4.31728 3 
27.2881 7.16402 4.31464 3 
27.2751 4.30346 7.17785 3 
25.8391 5.73666 5.74349 3 
27.276 7.17691 7.17477 3 
1.43908 10.0518 4.3085 3 
1.43434 10.0519 7.1754 3 
2.87254 8.61593 5.74194 3 
2.87253 11.4878 5.74192 3 
4.30608 10.0519 4.30381 3 
7.17533 10.0519 4.30171 3 
4.30627 10.0519 7.17564 3 
5.74115 8.61616 5.73884 3 
7.17587 10.0518 7.17366 3 
5.74116 11.4876 5.73884 3 
10.0457 10.0518 4.30071 3 
8.61078 8.61635 5.73711 3 
10.0459 10.0518 7.17245 3 
11.4812 8.61646 5.73637 3 
8.61072 11.4874 5.73711 3 
11.4812 11.4872 5.73638 3 
12.9166 10.0518 4.30039 3 
15.7878 10.0519 4.3005 3 
12.9166 10.0518 7.1719 3 
14.3521 8.61648 5.73622 3 
15.788 10.0518 7.1714 3 
14.3521 11.4872 5.7362 3 
18.661 10.0519 4.29844 3 
17.224 8.61644 5.73542 3 
18.6589 10.0518 7.17176 3 
20.094 8.61619 5.73668 3 
17.224 11.4873 5.73541 3 
20.094 11.4875 5.73667 3 
21.5292 10.0519 4.30209 3 
24.4105 10.0518 4.30228 3 
21.531 10.0519 7.1715 3 
22.9672 8.61543 5.73656 3 
22.9672 11.4883 5.73656 3 
24.4043 10.0518 7.17041 3 
28.7113 11.4875 5.7398 3 
27.2729 10.0518 4.29901 3 
28.7114 8.61616 5.73981 3 
25.8419 8.61148 5.73711 3 
27.2738 10.0518 7.17242 3 
25.8419 11.4922 5.73709 3 
1.44026 12.9236 4.30967 3 
1.4508 15.8143 4.32019 3 
1.43526 12.924 7.17608 3 
1.43823 15.8003 7.17944 3 
2.87411 14.3615 5.74348 3 
0.00633242 14.3686 5.74714 3 
4.30678 12.9241 4.3047 3 
4.31012 15.8004 4.30769 3 
7.17563 12.9234 4.30215 3 
7.17659 15.7959 4.30323 3 
4.30763 15.7966 7.17709 3 
4.3066 12.9236 7.17599 3 
7.17602 12.9231 7.17391 3 
5.74181 14.3597 5.73966 3 
7.17643 15.7949 7.17452 3 
10.0458 12.9229 4.30103 3 
10.0459 15.7944 4.30178 3 
10.0459 12.9227 7.17262 3 
8.61096 14.3587 5.73766 3 
10.046 15.794 7.1731 3 
11.481 14.3582 5.73684 3 
12.9164 12.9227 4.30072 3 
15.7871 12.9229 4.30105 3 
12.9158 15.7943 4.3016 3 
15.7857 15.7955 4.30248 3 
12.9165 12.9226 7.17203 3 
15.7877 12.9226 7.17167 3 
12.9161 15.7938 7.17255 3 
14.3516 14.3584 5.73677 3 
15.7869 15.7942 7.17245 3 
18.6597 12.9234 4.29966 3 
18.657 15.7969 4.30227 3 
18.6583 12.923 7.17227 3 
17.2228 14.3589 5.73653 3 
18.6568 15.7954 7.17371 3 
20.0915 14.3611 5.73917 3 
21.5253 12.9277 4.30584 3 
21.5227 15.8039 4.30893 3 
24.4014 12.9327 4.3092 3 
24.3973 15.8081 4.31321 3 
21.5297 12.9236 7.17273 3 
21.5275 15.7972 7.17526 3 
22.963 14.3639 5.7416 3 
24.4023 12.9253 7.17302 3 
24.4004 15.7988 7.17645 3 
27.2881 12.9397 4.31468 3 
27.2791 15.8124 4.31736 3 
27.276 12.9267 7.17478 3 
25.8392 14.367 5.74358 3 
27.2752 15.8002 7.17793 3 
1.43857 18.674 4.30803 3 
1.436 18.6715 7.17859 3 
2.87721 17.2397 5.74663 3 
2.87207 20.1061 5.74154 3 
0.00193768 17.2404 5.74666 3 
4.30922 18.6715 4.30556 3 
7.17709 18.6678 4.3033 3 
4.30843 18.6703 7.17795 3 
5.7432 17.2333 5.741 3 
7.17698 18.6672 7.17516 3 
5.74253 20.1043 5.74 3 
10.0459 18.6662 4.3023 3 
8.61137 17.2307 5.7384 3 
10.046 18.6657 7.17362 3 
11.4808 17.2299 5.73753 3 
8.61148 20.1023 5.73854 3 
11.4807 20.1016 5.73796 3 
12.9153 18.6663 4.30233 3 
15.7849 18.6678 4.30316 3 
12.9157 18.6655 7.17312 3 
14.3507 17.2303 5.73769 3 
15.7861 18.6661 7.1732 3 
14.3504 20.1021 5.73808 3 
18.6565 18.6687 4.30284 3 
17.2214 17.2314 5.73791 3 
18.6561 18.6677 7.17436 3 
20.0903 17.2346 5.74063 3 
17.2212 20.1028 5.73805 3 
20.0921 20.1039 5.73881 3 
21.5272 18.6705 4.30438 3 
24.4003 18.6714 4.30568 3 
21.5274 18.6691 7.17561 3 
22.9623 17.2369 5.74288 3 
22.9641 20.1045 5.73962 3 
24.4002 18.6701 7.17668 3 
28.7107 20.1059 5.74135 3 
27.2751 18.6727 4.30719 3 
25.8371 17.2387 5.7447 3 
27.2738 18.6709 7.17777 3 
25.8371 20.1052 5.74051 3 
1.43363 24.4079 4.30314 3 
1.43458 21.5397 4.30412 3 
1.43402 21.5394 7.17585 3 
2.86991 22.9737 5.73944 3 
1.43342 24.4079 7.17486 3 
4.30646 21.5395 4.30366 3 
7.17661 21.5384 4.30291 3 
7.17615 24.4081 4.3027 3 
4.30545 24.408 4.30305 3 
4.30622 21.5392 7.17578 3 
7.17659 21.5381 7.17474 3 
5.74122 22.9735 5.73904 3 
7.17617 24.408 7.17446 3 
4.3054 24.408 7.17495 3 
10.0458 24.4081 4.30241 3 
10.0459 21.5375 4.30243 3 
10.046 21.5372 7.17381 3 
8.61122 22.9729 5.73843 3 
10.0459 24.408 7.17382 3 
11.4807 22.9727 5.73804 3 
12.9153 21.5376 4.30238 3 
15.7857 21.5381 4.30243 3 
12.9155 24.408 4.30227 3 
15.7861 24.408 4.30209 3 
12.9156 21.5371 7.17337 3 
15.786 21.5374 7.17322 3 
14.3507 22.9728 5.73784 3 
15.7861 24.4079 7.17312 3 
12.9157 24.408 7.17337 3 
18.6571 21.5384 4.30223 3 
18.6574 24.4079 4.30188 3 
18.6568 21.538 7.17359 3 
17.2216 22.973 5.73768 3 
20.0929 22.9731 5.73782 3 
18.6571 24.4078 7.17324 3 
21.5287 21.5386 4.30251 3 
24.401 21.5388 4.30301 3 
21.5291 24.4078 4.30199 3 
24.401 24.4078 4.30233 3 
21.5284 21.5384 7.17411 3 
22.9648 22.9732 5.73818 3 
24.4007 24.4078 7.17395 3 
24.4006 21.5388 7.17469 3 
21.5287 24.4077 7.17352 3 
28.7095 22.9736 5.73917 3 
27.2736 21.5392 4.30365 3 
27.2733 24.4078 4.30279 3 
27.2732 21.5391 7.17534 3 
25.837 22.9734 5.73868 3 
27.2731 24.4078 7.17443 3 
1.43453 27.2761 4.30404 3 
2.87197 28.7098 5.74147 3 
1.43398 27.2764 7.17581 3 
2.86986 25.8422 5.73941 3 
5.74248 28.7117 5.73993 3 
4.30637 27.2764 4.30358 3 
7.1766 27.2776 4.30284 3 
4.30616 27.2767 7.17571 3 
5.7412 25.8426 5.73901 3 
7.17657 27.2779 7.17473 3 
10.0459 27.2786 4.30237 3 
8.6112 25.8431 5.73842 3 
10.046 27.2789 7.17381 3 
11.4807 25.8434 5.73803 3 
12.9153 27.2784 4.30232 3 
15.7857 27.2778 4.30234 3 
12.9156 27.2789 7.17337 3 
14.3507 25.8432 5.73781 3 
15.786 27.2785 7.17321 3 
20.0921 28.7118 5.73875 3 
18.6571 27.2774 4.30214 3 
17.2216 25.8429 5.73766 3 
18.6568 27.2777 7.17356 3 
20.0929 25.8425 5.73783 3 
22.9641 28.711 5.73955 3 
21.5287 27.2769 4.30246 3 
24.4009 27.2768 4.30297 3 
21.5284 27.2771 7.17407 3 
22.9647 25.8423 5.73816 3 
24.4005 27.2767 7.17464 3 
28.7106 28.7099 5.74128 3 
28.7095 25.8422 5.73914 3 
27.2736 27.2765 4.30359 3 
25.837 28.7104 5.74041 3 
25.837 25.8422 5.73864 3 
27.2732 27.2765 7.17527 3 
2.87141 2.87047 8.61256 3 
1.43358 1.43605 10.0464 3 
2.86871 2.87311 11.4808 3 
2.8688 0.00162694 11.4809 3 
5.74151 2.87262 8.61104 3 
4.30549 1.43665 10.0465 3 
7.17574 1.43792 10.0454 3 
5.73972 2.87386 11.4806 3 
5.74 0.00214649 11.4808 3 
5.74165 0.000608338 8.61128 3 
8.611 2.8739 8.6094 3 
11.4809 2.87433 8.60844 3 
11.4807 0.00281871 8.6088 3 
10.0456 1.43863 10.0443 3 
8.61008 2.87432 11.4799 3 
11.4803 2.87444 11.479 3 
11.4801 0.00301061 11.4791 3 
8.61018 0.00284126 11.48 3 
8.61116 0.00223152 8.60977 3 
14.3513 2.87416 8.60808 3 
12.9157 1.43867 10.0436 3 
15.7861 1.43817 10.0436 3 
14.3509 2.87421 11.4785 3 
14.3508 0.00260697 8.60845 3 
14.3504 0.00267478 11.4786 3 
17.2216 2.87337 8.60854 3 
20.0923 2.87218 8.60946 3 
17.2212 0.00170027 8.60882 3 
18.6569 1.4374 10.044 3 
17.2218 2.87374 11.4786 3 
20.0931 2.87327 11.4788 3 
20.0923 0.000776576 8.6095 3 
20.0927 0.00170416 11.4789 3 
17.2213 0.00212521 11.4786 3 
22.9642 2.87121 8.61026 3 
21.5285 1.43673 10.0446 3 
24.4005 1.43629 10.0452 3 
22.9648 2.87293 11.4793 3 
22.9642 0.000107257 8.61019 3 
22.9646 0.0014219 11.4794 3 
28.7088 2.87275 11.4803 3 
28.7104 2.86998 8.61207 3 
25.8369 2.87044 8.61106 3 
27.273 1.43604 10.0458 3 
25.8367 2.87272 11.4797 3 
28.7088 0.00138294 11.4805 3 
25.8367 0.00129836 11.4799 3 
2.87016 5.74405 8.61114 3 
1.43362 4.30785 10.0459 3 
1.43264 7.18031 10.0449 3 
2.868 5.74498 11.4803 3 
5.74094 5.74484 8.61044 3 
4.3043 7.18068 10.0454 3 
7.17548 4.30963 10.0451 3 
4.30491 4.30892 10.0459 3 
7.17522 7.18091 10.0449 3 
5.73928 5.74534 11.4804 3 
8.61086 5.74539 8.60899 3 
11.4811 5.7456 8.60808 3 
10.0456 4.30998 10.0441 3 
10.0456 7.18104 10.0439 3 
8.60998 5.74556 11.4798 3 
11.4805 5.74559 11.4789 3 
14.3518 5.74559 8.60765 3 
15.7868 4.30981 10.0433 3 
12.9161 4.31006 10.0433 3 
12.9163 7.18111 10.0431 3 
15.7873 7.18106 10.043 3 
14.3513 5.74554 11.4784 3 
17.2225 5.74531 8.60784 3 
20.0935 5.74472 8.6083 3 
18.6577 4.30932 10.0435 3 
18.6586 7.18091 10.043 3 
17.2225 5.74533 11.4784 3 
20.0939 5.74501 11.4785 3 
22.9652 5.74373 8.60863 3 
21.529 4.30867 10.0439 3 
21.5302 7.18063 10.043 3 
22.9653 5.74464 11.4788 3 
24.4015 7.18001 10.0431 3 
24.4009 4.30809 10.0443 3 
28.7107 5.74244 8.61071 3 
25.8377 5.74271 8.6093 3 
27.2732 4.30769 10.045 3 
28.7085 5.74447 11.4798 3 
27.2731 7.1797 10.0439 3 
25.8368 5.74441 11.4792 3 
2.86936 8.61617 8.61047 3 
2.86939 11.4876 8.61046 3 
1.43222 10.0519 10.0446 3 
2.86755 8.61636 11.4801 3 
2.86756 11.4874 11.4801 3 
5.74058 8.61627 8.61011 3 
5.74063 11.4875 8.61011 3 
4.30413 10.0519 10.0453 3 
7.17513 10.0518 10.0448 3 
5.73904 8.61644 11.4803 3 
5.7391 11.4874 11.4803 3 
8.61072 8.6164 8.60875 3 
11.4811 8.61649 8.60784 3 
8.61066 11.4873 8.60874 3 
11.4811 11.4872 8.60783 3 
10.0456 10.0519 10.0438 3 
8.6099 8.61645 11.4797 3 
11.4806 8.61646 11.4788 3 
8.60991 11.4873 11.4797 3 
11.4806 11.4872 11.4788 3 
14.3522 8.6165 8.60733 3 
14.3521 11.4872 8.60728 3 
12.9164 10.0518 10.043 3 
15.7875 10.0518 10.0429 3 
14.3516 8.61645 11.4783 3 
14.3516 11.4872 11.4783 3 
17.2232 8.61648 8.60738 3 
20.0947 8.61639 8.60738 3 
17.2232 11.4872 8.60737 3 
20.0947 11.4873 8.60738 3 
18.659 10.0518 10.0429 3 
17.223 8.61639 11.4783 3 
20.0946 8.61632 11.4784 3 
17.2229 11.4872 11.4783 3 
20.0945 11.4873 11.4784 3 
22.9668 8.61615 8.60679 3 
22.9668 11.4875 8.60679 3 
21.5307 10.0518 10.0426 3 
22.9659 8.61615 11.4784 3 
22.9659 11.4875 11.4784 3 
24.4021 10.0518 10.0424 3 
28.7092 11.4879 8.60903 3 
28.7092 8.61581 8.60902 3 
28.7079 11.4875 11.4794 3 
28.7079 8.61614 11.4794 3 
25.8381 8.6152 8.60733 3 
25.8382 11.4885 8.60733 3 
27.2727 10.0518 10.0434 3 
25.8368 8.61599 11.4787 3 
25.8368 11.4877 11.4787 3 
2.87017 14.3597 8.61114 3 
1.43267 12.9234 10.0449 3 
1.43369 15.7958 10.0459 3 
2.86809 14.3587 11.4803 3 
5.74092 14.359 8.61046 3 
4.30492 15.7949 10.0459 3 
4.30434 12.9231 10.0454 3 
7.17523 12.9229 10.0449 3 
7.17548 15.7942 10.0451 3 
5.73934 14.3584 11.4804 3 
8.6108 14.3584 8.60898 3 
11.481 14.3581 8.608 3 
10.0456 12.9226 10.0438 3 
10.0456 15.7938 10.044 3 
8.61003 14.3582 11.4797 3 
11.4805 14.3581 11.4788 3 
14.3518 14.3581 8.60753 3 
12.9163 12.9226 10.043 3 
15.7873 12.9226 10.0429 3 
12.916 15.7936 10.0433 3 
15.7867 15.7938 10.0432 3 
14.3513 14.3581 11.4784 3 
17.2225 14.3584 8.60785 3 
20.0935 14.3589 8.60833 3 
18.6586 12.9227 10.0431 3 
18.6577 15.7943 10.0436 3 
17.2224 14.3583 11.4784 3 
20.0939 14.3586 11.4786 3 
22.9651 14.3598 8.60867 3 
21.5301 12.923 10.043 3 
21.529 15.7949 10.044 3 
22.9653 14.3589 11.4788 3 
24.4009 15.7955 10.0444 3 
24.4016 12.9236 10.0431 3 
28.7108 14.3612 8.61071 3 
28.7086 14.3591 11.4798 3 
25.8377 14.3609 8.60935 3 
27.2732 12.924 10.0439 3 
27.2733 15.7959 10.0451 3 
25.8369 14.3592 11.4792 3 
2.87142 17.2333 8.61263 3 
2.87034 20.1043 8.61196 3 
1.43362 18.6677 10.0465 3 
2.86874 17.2306 11.4808 3 
2.86882 20.1022 11.4809 3 
5.74151 17.2312 8.61107 3 
5.74168 20.1033 8.61131 3 
4.30548 18.6672 10.0465 3 
7.17578 18.6659 10.0454 3 
5.73973 17.2299 11.4806 3 
5.74001 20.1016 11.4808 3 
8.61101 17.23 8.60941 3 
11.4809 17.2294 8.60842 3 
8.61117 20.1017 8.60974 3 
11.4807 20.1011 8.60876 3 
10.0456 18.6652 10.0442 3 
8.61012 17.2295 11.4798 3 
11.4804 17.2293 11.4789 3 
8.61023 20.101 11.48 3 
11.4802 20.1008 11.479 3 
14.3512 17.2295 8.60803 3 
14.3508 20.1012 8.60841 3 
12.9157 18.6651 10.0435 3 
15.786 18.6655 10.0435 3 
14.3508 17.2294 11.4784 3 
14.3504 20.101 11.4785 3 
17.2216 17.2303 8.60857 3 
20.0923 17.2314 8.60954 3 
17.2211 20.102 8.60884 3 
20.0923 20.1028 8.60954 3 
18.6569 18.6662 10.044 3 
17.2217 17.2298 11.4785 3 
20.0931 17.2303 11.4789 3 
17.2212 20.1015 11.4786 3 
20.0927 20.1018 11.479 3 
22.9642 17.2324 8.61032 3 
22.9643 20.1034 8.61025 3 
21.5285 18.6668 10.0446 3 
22.9648 17.2306 11.4793 3 
22.9647 20.102 11.4795 3 
24.4006 18.6672 10.0452 3 
28.7096 20.1043 8.61166 3 
28.7089 20.1023 11.4806 3 
28.7089 17.2309 11.4804 3 
28.7105 17.2337 8.61214 3 
25.8371 17.2331 8.61116 3 
25.8368 20.1038 8.61097 3 
27.2731 18.6675 10.0459 3 
25.8368 17.2308 11.4798 3 
25.8368 20.1022 11.4801 3 
2.86939 22.9734 8.61067 3 
1.43298 24.4079 10.0456 3 
1.4332 21.5383 10.046 3 
2.86868 22.9728 11.4807 3 
5.74086 22.9732 8.61047 3 
4.30473 24.4079 10.0457 3 
7.1756 24.408 10.0454 3 
4.30506 21.538 10.0461 3 
7.17582 21.5374 10.0455 3 
5.73989 22.9726 11.4807 3 
8.61099 22.9727 8.60968 3 
11.4807 22.9725 8.60892 3 
10.0455 24.408 10.0445 3 
10.0456 21.5368 10.0445 3 
8.61022 22.9724 11.48 3 
11.48 22.9723 11.4791 3 
14.3507 22.9725 8.60849 3 
14.3502 22.9723 11.4785 3 
12.9155 21.5367 10.0437 3 
15.7858 21.537 10.0436 3 
12.9154 24.4079 10.0438 3 
15.7858 24.4079 10.0436 3 
17.2214 22.9727 8.60855 3 
20.0927 22.9728 8.60892 3 
18.657 24.4078 10.0438 3 
18.6568 21.5374 10.044 3 
17.2212 22.9725 11.4786 3 
20.0928 22.9725 11.4789 3 
22.9646 22.973 8.60934 3 
21.5286 21.5376 10.0444 3 
21.5286 24.4077 10.0442 3 
24.4007 21.5379 10.045 3 
22.9647 22.9726 11.4793 3 
24.4007 24.4078 10.0446 3 
28.7091 22.9733 8.6104 3 
25.8368 22.9732 8.60985 3 
28.7088 22.9728 11.4804 3 
25.8368 22.9728 11.4799 3 
27.2729 21.5382 10.0456 3 
27.2728 24.4078 10.0451 3 
2.87031 28.7116 8.61191 3 
2.86933 25.8424 8.61065 3 
2.86865 25.843 11.4807 3 
1.43316 27.2775 10.046 3 
5.74081 25.8428 8.61044 3 
4.30501 27.2778 10.0461 3 
5.73989 25.8432 11.4807 3 
7.17579 27.2785 10.0455 3 
8.611 25.8433 8.60969 3 
11.4806 25.8435 8.60892 3 
11.48 25.8436 11.4791 3 
8.61021 25.8435 11.4801 3 
10.0455 27.2792 10.0445 3 
14.3507 25.8434 8.60846 3 
14.3502 25.8434 11.4786 3 
15.7858 27.2788 10.0436 3 
12.9154 27.2792 10.0437 3 
17.2214 25.8431 8.60855 3 
20.0927 25.8427 8.60888 3 
17.2212 25.8431 11.4786 3 
18.6569 27.2782 10.044 3 
20.0927 25.8429 11.4789 3 
22.9645 25.8425 8.60931 3 
21.5285 27.2778 10.0444 3 
24.4005 27.2775 10.0449 3 
22.9646 25.8428 11.4793 3 
25.8366 28.7117 8.61088 3 
28.7091 25.8424 8.61031 3 
28.7096 28.7115 8.61156 3 
25.8367 25.8424 8.60981 3 
27.2728 27.2775 10.0455 3 
25.8367 25.8428 11.4798 3 
28.7088 25.8429 11.4803 3 
1.43254 1.43761 12.9152 3 
2.86785 2.87375 14.3503 3 
2.86821 0.00220542 14.3502 3 
1.43259 1.43738 15.7847 3 
4.30391 1.43805 12.9156 3 
7.17449 1.43859 12.9153 3 
5.73901 0.00268424 14.3504 3 
4.30345 1.43811 15.7854 3 
7.1738 1.43858 15.7855 3 
5.73868 2.87426 14.3505 3 
10.0447 1.43877 12.9146 3 
11.4794 2.87421 14.3493 3 
10.0439 1.43845 15.7848 3 
8.60914 2.87444 14.3502 3 
8.60923 0.00296086 14.35 3 
11.4792 0.00267565 14.3491 3 
12.9149 1.43847 12.9137 3 
15.7856 1.4379 12.9133 3 
12.9138 1.43764 15.7835 3 
15.7841 1.43632 15.7823 3 
14.3499 2.87363 14.3484 3 
14.3494 0.00195509 14.3481 3 
20.0927 0.00115148 14.3481 3 
18.657 1.43746 12.9134 3 
20.0928 2.87259 14.3484 3 
17.2207 0.0013677 14.3478 3 
17.2209 2.87288 14.348 3 
18.656 1.43577 15.7823 3 
21.5288 1.43725 12.9138 3 
24.4007 1.43719 12.9143 3 
22.9648 2.87265 14.3488 3 
21.5286 1.43582 15.7828 3 
24.401 1.43618 15.7834 3 
22.9648 0.00121474 14.3486 3 
28.7087 0.0017662 14.3496 3 
28.7085 2.87327 14.3498 3 
27.2727 1.43732 12.9147 3 
27.2731 1.4367 15.784 3 
25.8369 0.00141758 14.3491 3 
25.8368 2.87289 14.3493 3 
1.4321 4.30923 12.9152 3 
1.43144 7.18076 12.9151 3 
1.43193 4.30923 15.7852 3 
1.43116 7.18084 15.7858 3 
2.86717 5.74533 14.3505 3 
4.30337 4.30968 12.9155 3 
4.30292 7.18094 12.9154 3 
7.17425 4.31 12.9153 3 
7.17402 7.18104 12.9153 3 
4.30287 4.30978 15.7857 3 
4.30238 7.18102 15.7861 3 
7.17356 4.31004 15.7858 3 
7.17334 7.18112 15.786 3 
5.73826 5.74554 14.3507 3 
10.0448 4.31005 12.9146 3 
10.0448 7.18104 12.9146 3 
10.044 4.3099 15.7851 3 
10.0441 7.18099 15.7853 3 
11.4796 5.74544 14.3494 3 
8.60906 5.74563 14.3503 3 
15.7863 4.30958 12.9134 3 
12.9153 4.3099 12.9138 3 
12.9156 7.18098 12.9138 3 
15.7868 7.1809 12.9136 3 
14.3504 5.74521 14.3486 3 
12.9142 4.30942 15.7839 3 
15.7848 4.30869 15.7829 3 
12.9145 7.1808 15.7841 3 
15.7854 7.18057 15.7834 3 
18.6576 4.30915 12.9136 3 
18.6583 7.1807 12.9137 3 
18.6561 4.30767 15.7828 3 
18.6572 7.18019 15.7838 3 
17.2217 5.74487 14.3485 3 
20.0932 5.74439 14.3489 3 
21.5291 4.30889 12.9139 3 
24.4008 4.30883 12.9143 3 
21.5297 7.18046 12.914 3 
24.4009 7.18034 12.9144 3 
21.5285 4.30756 15.7836 3 
24.4008 4.30798 15.7842 3 
21.5287 7.17965 15.7848 3 
24.4002 7.17995 15.7856 3 
22.9649 5.74434 14.3495 3 
28.7078 5.745 14.3501 3 
25.8364 5.7446 14.3499 3 
27.2725 4.30892 12.9147 3 
27.272 7.18048 12.9147 3 
27.2726 4.30858 15.7847 3 
27.2716 7.18059 15.7857 3 
1.43118 10.0518 12.9151 3 
2.86678 8.61643 14.3506 3 
2.86679 11.4873 14.3507 3 
1.43084 10.0518 15.786 3 
5.73805 8.61648 14.3508 3 
4.3028 10.0519 12.9155 3 
7.174 10.0519 12.9153 3 
4.30222 10.0519 15.7862 3 
7.17332 10.0519 15.7861 3 
5.73813 11.4873 14.3508 3 
10.0448 10.0518 12.9146 3 
11.4797 8.61643 14.3495 3 
10.0441 10.0518 15.7854 3 
8.60904 8.61647 14.3504 3 
11.4797 11.4872 14.3495 3 
8.60906 11.4872 14.3504 3 
12.9156 10.0518 12.9138 3 
15.7869 10.0518 12.9136 3 
12.9146 10.0518 15.7843 3 
15.7856 10.0518 15.7836 3 
14.3506 11.4873 14.3487 3 
14.3506 8.61637 14.3487 3 
18.6586 10.0518 12.9138 3 
18.6576 10.0518 15.7841 3 
17.2222 8.61628 14.3487 3 
20.0938 11.4875 14.3494 3 
20.0939 8.61612 14.3494 3 
17.2221 11.4874 14.3487 3 
21.53 10.0518 12.9141 3 
24.4009 10.0518 12.9144 3 
21.5292 10.0519 15.7854 3 
24.3998 10.0518 15.7863 3 
22.965 8.61599 14.35 3 
22.965 11.4877 14.35 3 
28.7072 8.61632 14.3504 3 
27.2718 10.0518 12.9147 3 
28.7073 11.4873 14.3505 3 
27.2711 10.0518 15.7862 3 
25.8359 8.61616 14.3504 3 
25.836 11.4875 14.3504 3 
1.4315 12.9229 12.9151 3 
1.43218 15.7944 12.9153 3 
2.86728 14.3583 14.3505 3 
1.4312 12.9227 15.7859 3 
1.43208 15.7943 15.7853 3 
4.30346 15.794 12.9155 3 
4.30302 12.9228 12.9155 3 
7.17412 12.9227 12.9153 3 
7.1743 15.7938 12.9153 3 
5.73839 14.3581 14.3507 3 
4.30247 12.9226 15.7861 3 
4.303 15.7938 15.7858 3 
7.17343 12.9226 15.7861 3 
7.17363 15.7936 15.7858 3 
8.60912 14.3581 14.3503 3 
10.0448 12.9226 12.9146 3 
10.0448 15.7937 12.9145 3 
11.4796 14.3582 14.3494 3 
10.0441 12.9227 15.7854 3 
10.044 15.7937 15.7851 3 
12.9155 12.9227 12.9138 3 
15.7867 12.9227 12.9135 3 
12.9153 15.7937 12.9138 3 
15.7862 15.794 12.9134 3 
12.9144 12.9228 15.7842 3 
15.7853 12.9231 15.7835 3 
12.9142 15.7942 15.7839 3 
15.7847 15.7948 15.783 3 
14.3503 14.3584 14.3486 3 
18.6582 12.9229 12.9137 3 
18.6575 15.7944 12.9136 3 
18.6571 12.9234 15.7839 3 
18.656 15.7958 15.7828 3 
17.2216 14.3587 14.3485 3 
20.0932 14.3591 14.349 3 
21.5297 12.9231 12.9141 3 
21.5291 15.7946 12.914 3 
24.4009 12.9232 12.9144 3 
22.9649 14.3592 14.3495 3 
24.4008 15.7947 12.9144 3 
21.5286 12.924 15.7849 3 
21.5284 15.7959 15.7836 3 
24.4008 15.7954 15.7843 3 
24.4002 12.9236 15.7856 3 
28.7079 14.3585 14.3503 3 
27.2721 12.9231 12.9147 3 
27.2726 15.7946 12.9148 3 
27.2717 12.923 15.7858 3 
27.2727 15.7948 15.7848 3 
25.8365 14.3589 14.3499 3 
2.86824 20.1014 14.3502 3 
1.43259 18.666 12.9154 3 
2.86791 17.2298 14.3504 3 
1.43269 18.6661 15.7848 3 
4.30391 18.6657 12.9156 3 
7.17453 18.6652 12.9153 3 
5.73876 17.2294 14.3506 3 
4.30351 18.6655 15.7854 3 
7.17388 18.6651 15.7855 3 
5.73904 20.101 14.3504 3 
11.4794 17.2295 14.3492 3 
8.6092 17.2293 14.3502 3 
10.0447 18.665 12.9145 3 
11.4792 20.101 14.349 3 
8.60928 20.1008 14.35 3 
10.0439 18.6652 15.7848 3 
12.915 18.6652 12.9137 3 
15.7856 18.6656 12.9133 3 
14.3498 17.2299 14.3483 3 
12.9138 18.6659 15.7835 3 
15.784 18.6671 15.7823 3 
14.3494 20.1016 14.3481 3 
17.2207 20.1021 14.3478 3 
18.657 18.666 12.9134 3 
17.2209 17.2306 14.348 3 
20.0927 20.1022 14.3481 3 
18.656 18.6676 15.7823 3 
20.0928 17.2308 14.3484 3 
22.9649 17.2308 14.3489 3 
21.5288 18.6662 12.9139 3 
24.4008 18.6662 12.9143 3 
21.5286 18.6675 15.7828 3 
24.4011 18.6672 15.7835 3 
22.9649 20.1021 14.3486 3 
28.7086 17.2302 14.3499 3 
25.8369 17.2305 14.3494 3 
27.2728 18.6662 12.9149 3 
28.7088 20.1018 14.3497 3 
27.2732 18.6667 15.7841 3 
25.837 20.102 14.3492 3 
1.43267 21.5373 12.9153 3 
1.43265 24.4079 12.9153 3 
2.86827 22.9725 14.3502 3 
1.43269 21.5374 15.7848 3 
1.43254 24.4078 15.785 3 
4.30404 21.537 12.9156 3 
7.17467 21.5367 12.9153 3 
7.17466 24.4079 12.9153 3 
4.30366 21.5369 15.7853 3 
7.17399 21.5366 15.7853 3 
7.17398 24.4078 15.7852 3 
4.3036 24.4078 15.7853 3 
5.73912 22.9723 14.3504 3 
4.30401 24.4079 12.9155 3 
11.4791 22.9723 14.349 3 
10.0447 24.4079 12.9145 3 
10.0447 21.5365 12.9145 3 
8.60929 22.9722 14.3499 3 
10.0439 21.5367 15.7846 3 
10.0439 24.4078 15.7846 3 
15.7853 24.4078 12.9133 3 
15.7854 21.537 12.9133 3 
12.9147 21.5367 12.9136 3 
14.3495 22.9725 14.3482 3 
12.9136 21.5373 15.7834 3 
15.7845 21.5379 15.7827 3 
15.7847 24.4078 15.7831 3 
12.9138 24.4078 15.7836 3 
12.9146 24.4078 12.9136 3 
18.6568 24.4077 12.9134 3 
18.6568 21.5372 12.9134 3 
20.0927 22.9727 14.3483 3 
17.2208 22.9727 14.348 3 
18.6563 21.5381 15.7827 3 
18.6566 24.4077 15.7831 3 
24.4008 24.4077 12.9143 3 
21.5287 24.4077 12.9138 3 
24.4008 21.5373 12.9143 3 
21.5288 21.5373 12.9138 3 
21.5287 21.538 15.7831 3 
24.401 21.5379 15.7837 3 
21.5288 24.4077 15.7835 3 
22.9649 22.9727 14.3488 3 
24.4009 24.4077 15.784 3 
28.7088 22.9726 14.3498 3 
25.8369 22.9727 14.3493 3 
27.2728 21.5374 12.9149 3 
27.2731 21.5377 15.7842 3 
27.2729 24.4077 15.7845 3 
27.2728 24.4078 12.9148 3 
2.86825 25.8432 14.3502 3 
1.43263 27.2784 12.9153 3 
1.43262 27.2782 15.7848 3 
7.17465 27.2791 12.9154 3 
4.30401 27.2787 12.9156 3 
5.73911 25.8434 14.3504 3 
4.30364 27.2787 15.7853 3 
7.17398 27.279 15.7853 3 
10.0446 27.2793 12.9145 3 
8.60929 25.8435 14.3499 3 
10.0439 27.2789 15.7846 3 
11.4791 25.8433 14.349 3 
15.7854 27.2786 12.9133 3 
12.9147 27.279 12.9136 3 
14.3494 25.843 14.3482 3 
12.9136 27.2782 15.7834 3 
15.7845 27.2775 15.7826 3 
20.0927 25.8427 14.3483 3 
18.6569 27.2782 12.9134 3 
17.2208 25.8428 14.348 3 
18.6564 27.2772 15.7827 3 
24.4008 27.278 12.9143 3 
21.5287 27.2781 12.9138 3 
21.5287 27.2773 15.7831 3 
24.401 27.2775 15.7836 3 
22.9648 25.8427 14.3487 3 
28.7087 25.843 14.3498 3 
27.2728 27.2782 12.9148 3 