ITEM: TIMESTEP
47000
ITEM: NUMBER OF ATOMS
2001
ITEM: BOX BOUNDS pp pp pp
0.0000000000000000e+00 2.8712000000000000e+01
0.0000000000000000e+00 2.8712000000000000e+01
0.0000000000000000e+00 2.8712000000000000e+01
ITEM: ATOMS x y z 
1.42131 1.5056 1.28878 
2.89561 2.71418 2.79687 
0.00604895 2.78578 2.68909 
4.23568 1.33746 1.25199 
7.10549 1.5429 1.47682 
5.64062 2.85636 2.67031 
5.79805 0.0193706 0.0591619 
10.1952 1.54528 1.64373 
8.74625 2.7489 2.82875 
11.5865 2.84143 3.0611 
11.5854 0.146408 2.9029 
12.8607 1.48117 1.36197 
15.8242 1.51386 1.28467 
14.4958 2.91759 3.02642 
14.3217 0.113681 2.74298 
18.6651 1.4999 1.5223 
17.2097 2.89839 2.8166 
20.0625 2.80089 2.71385 
17.2637 0.0367377 2.83253 
20.0619 0.0896227 0.0696426 
17.2353 0.142953 0.0740457 
20.2432 2.97225 0.230257 
21.6852 1.34582 1.41167 
23.0544 3.00151 3.10815 
24.4737 1.45025 1.3716 
23.0938 0.103287 3.13758 
27.1415 1.54429 1.43843 
25.7479 2.86339 2.81157 
28.5734 0.00393045 0.167044 
1.42134 4.2385 1.42908 
1.45861 7.26119 1.44589 
2.87681 5.70576 2.79077 
0.0143582 5.665 2.92537 
2.73264 5.63572 0.0274366 
0.117144 5.75463 0.00858263 
4.20205 7.04115 4.07602 
4.32196 4.14762 1.36792 
7.27339 4.24401 1.32862 
4.2872 7.10216 1.46379 
7.1248 7.17556 1.39286 
5.91006 5.63318 2.80958 
5.64684 6.03046 0.0923259 
10.0098 4.42361 1.41834 
10.0069 7.07955 1.38374 
8.58118 5.79647 2.89711 
11.3064 5.57338 2.91583 
11.3876 5.72957 0.00862892 
15.762 4.37245 1.45675 
13.0923 4.16475 1.46325 
12.882 6.98965 1.30438 
15.8257 7.23933 1.38365 
14.196 5.84761 2.75882 
18.4789 4.2925 1.31461 
18.5876 7.18304 1.55347 
17.1918 5.86364 2.99553 
20.062 5.65678 2.86432 
17.3468 5.83891 0.165161 
19.9892 5.67334 0.143646 
24.3022 4.40003 1.51943 
21.6018 4.3476 1.5142 
21.5066 7.23728 1.53509 
22.8351 5.61963 3.04112 
24.4437 6.9672 1.39854 
27.2226 4.36636 1.30865 
27.4942 7.00016 1.44161 
26.0367 5.70881 3.01634 
1.32477 9.98269 1.38814 
2.66806 8.49988 2.89707 
2.78919 11.562 2.77549 
0.0936724 11.3986 2.74226 
4.07618 9.93215 1.32799 
5.80642 11.3848 0.0566661 
7.05504 9.93351 1.42519 
5.56505 8.58505 2.67141 
5.55315 11.3117 2.77816 
10.0974 9.80498 1.416 
8.58356 8.47627 2.84749 
11.5606 8.46189 2.89475 
8.59443 11.4204 2.79358 
11.455 11.2984 2.77542 
8.54552 8.51895 0.0238854 
12.8507 10.0028 1.36893 
15.5457 9.95788 1.34178 
14.2619 8.69617 2.85871 
14.2843 11.2914 2.93242 
19.8406 11.4341 0.0567135 
18.602 10.0614 1.486 
17.1398 8.58568 2.76293 
20.0091 8.5887 3.01158 
17.1088 11.3221 2.87218 
19.9157 11.4874 2.8173 
19.9059 8.78009 0.0634214 
17.1539 8.69739 0.0925411 
16.9878 11.4899 0.143321 
21.4397 10.0602 1.76571 
22.912 8.44626 3.0285 
23.0501 11.505 2.95719 
24.4019 9.97682 1.74153 
22.8522 11.3488 0.078004 
25.9433 8.25366 0.0627304 
28.6778 8.68629 2.81638 
27.1561 9.95453 1.31387 
25.8526 8.58525 2.79461 
25.8077 11.7232 2.90645 
25.9322 11.878 0.14632 
1.30276 12.8628 1.39278 
1.39511 15.9197 1.39478 
2.6243 14.5782 2.79417 
4.45081 15.8179 1.27896 
4.23513 12.8826 1.37324 
6.96918 12.817 1.47841 
7.14042 15.625 1.35862 
5.64625 14.4247 2.89542 
10.0538 12.7088 1.40293 
9.89659 15.6504 1.47768 
8.62466 14.2285 2.78743 
11.5601 14.2402 2.83154 
11.4585 14.3338 0.0246264 
12.7567 12.7787 1.46727 
15.632 12.8326 1.47303 
12.883 15.7866 1.39072 
15.7527 15.7075 1.434 
14.3368 14.2363 2.65829 
14.1127 14.385 0.0241791 
18.3159 12.8539 1.28643 
18.5328 15.6808 1.46852 
17.041 14.2073 2.85351 
20.0374 14.368 2.89426 
21.3529 12.8178 1.32698 
21.6076 15.6038 1.47228 
22.8977 14.3081 3.02512 
24.2626 13.0211 1.4311 
24.3893 15.7317 1.55456 
28.707 14.2644 2.91591 
27.3949 13.0002 1.45864 
27.26 15.7762 1.56215 
25.8478 14.2522 2.96408 
25.5897 14.2679 0.0359356 
1.3147 18.5965 1.23951 
1.17642 18.6521 4.04968 
2.88592 17.221 2.89802 
2.80863 20.0113 2.83636 
0.0869824 20.349 2.63375 
4.08871 18.6883 1.20544 
6.91179 18.7506 1.44951 
5.47376 17.2235 2.84975 
5.64627 20.0618 2.80794 
8.59661 17.0802 0.106174 
9.98692 18.5662 1.58402 
8.47507 17.0374 2.75997 
11.2875 17.0905 2.93985 
8.48403 20.0209 2.61418 
11.5644 20.202 2.83602 
11.3929 17.2073 0.13017 
12.7059 18.6864 1.35863 
15.5858 18.7241 1.44927 
13.0199 18.6528 4.09569 
14.3349 17.1988 2.84099 
14.2631 20.1927 2.95584 
14.2944 17.1914 0.19446 
18.6777 18.4944 1.44191 
17.0114 17.2621 2.69988 
20.1262 17.1594 2.81316 
17.2967 20.1628 2.76064 
19.9802 20.0966 2.91208 
20.0233 16.9729 0.031414 
20.0788 19.9744 0.00690174 
17.1903 20.0281 0.00882504 
21.512 18.7652 1.32187 
24.4872 18.5758 1.49958 
22.896 17.1053 3.03812 
22.8393 19.8978 2.69123 
22.921 17.0975 0.0656376 
28.4892 17.1143 2.84042 
27.2106 18.5187 1.54358 
25.7781 17.1165 3.01692 
25.8518 20.0706 2.77333 
25.9769 17.0819 0.061751 
1.57627 21.4744 1.24425 
2.71768 22.9081 2.79783 
1.51598 24.522 4.09414 
1.39584 24.4447 1.37257 
0.0331158 22.8552 2.65958 
2.84635 22.9151 0.0141609 
4.3363 24.5275 1.39066 
4.34676 21.4201 4.06932 
4.16372 21.5553 1.3789 
7.39334 21.6039 1.26793 
5.83569 22.9839 2.67472 
7.19472 24.5398 1.3838 
5.651 22.8525 0.00365082 
10.0466 21.634 1.09567 
8.7145 22.9359 2.67353 
11.346 22.9015 2.72193 
10.3086 24.4111 4.10152 
10.1201 24.4299 1.43807 
8.57803 23.0967 0.0116276 
12.8729 21.5865 1.32769 
15.6611 21.6118 1.40127 
14.4242 22.8943 2.98974 
12.9078 24.45 1.50922 
15.702 24.4275 1.42922 
18.6247 21.7315 1.31207 
17.3146 23.0298 2.7882 
20.1755 23.0668 2.99251 
18.7115 24.5433 1.52979 
20.2633 22.9712 0.16 
21.4163 21.4299 1.36312 
24.2611 21.4918 1.3749 
21.5011 24.5159 1.33083 
22.8264 22.9851 2.84735 
24.3327 24.4439 1.50233 
27.0343 21.595 1.37363 
25.8776 23.027 3.03403 
27.2803 24.3572 1.36587 
25.7043 22.9102 0.0962359 
2.85096 28.5618 2.71826 
1.21411 27.0637 1.54717 
2.88665 25.8603 2.75966 
2.78491 28.4745 0.0682664 
5.68338 28.475 2.94683 
4.24521 27.3951 1.32642 
7.21385 27.4848 1.32515 
5.79806 25.8934 2.71835 
5.71081 26.0194 0.0367096 
8.50965 28.693 2.94867 
10.1 27.4232 1.51618 
8.77135 25.8739 2.9229 
11.4952 25.931 2.86063 
11.4215 25.8737 0.0424392 
8.58579 25.869 0.092416 
12.9663 27.2426 1.46752 
15.8232 27.3402 1.4275 
14.2644 25.8889 2.76754 
19.9754 28.6963 2.99165 
18.6305 27.2335 1.39808 
17.2048 25.8802 2.83096 
20.0635 26.1421 2.95375 
20.1482 25.9619 0.00272055 
21.6399 27.4002 1.34999 
22.8737 25.8189 2.94455 
24.512 27.2867 1.55882 
23.1175 25.9065 0.163685 
22.9782 28.6109 0.110111 
28.6257 28.6919 2.6639 
25.6291 28.5692 3.00794 
28.4537 25.6364 2.85736 
27.1632 27.1898 1.59409 
25.6691 25.7388 3.16475 
25.6696 28.6276 0.144421 
25.7383 25.8104 0.0796647 
1.414 1.38405 4.18552 
1.29562 1.42991 7.28205 
2.76485 2.7468 5.66762 
4.36075 1.51185 4.11414 
7.0915 1.49786 4.12089 
4.22373 1.4865 7.23093 
7.02744 1.56737 7.05076 
5.71847 2.90557 5.60795 
5.63839 0.064548 5.56743 
10.1791 1.37809 4.48015 
10.0541 1.38921 7.23688 
8.65295 2.89154 5.70152 
11.6136 2.97926 5.81155 
11.5623 0.0538127 5.78527 
8.50981 0.0685809 5.85255 
13.0728 1.50108 4.40788 
15.8209 1.52878 4.31902 
12.9893 1.4896 7.26628 
15.8269 1.51634 7.32091 
14.4199 3.1025 5.76306 
14.4964 0.118041 5.73764 
18.7007 1.63922 4.27976 
18.6489 1.42804 7.38386 
16.9558 2.85078 5.70671 
20.0286 2.83848 5.78635 
19.9558 0.228003 5.84762 
17.3382 0.198213 5.7912 
21.4622 1.47681 4.46716 
24.5068 1.34275 4.4283 
21.6 1.54724 7.43742 
24.287 1.328 7.31725 
22.9842 2.83902 5.77352 
23.0139 0.0998104 5.76932 
27.1678 1.25834 4.3637 
28.6522 2.8102 5.62312 
27.23 1.32367 7.25632 
25.7239 2.80024 5.74637 
1.38719 4.20705 4.27514 
1.24207 7.06735 4.2993 
1.37754 4.23703 7.21751 
1.35311 7.18295 7.03501 
2.77621 5.56871 5.71978 
7.31644 4.30089 4.24875 
4.26191 4.18615 4.19102 
7.11742 6.9591 4.16909 
4.35486 7.18951 7.11135 
4.24671 4.22563 7.2063 
7.04893 4.40725 7.11414 
5.76068 5.63536 5.64397 
7.17574 7.18007 7.07975 
10.0489 4.30674 4.34895 
9.98987 7.24091 4.19605 
10.0653 4.28165 7.24204 
8.94119 5.80522 5.67951 
9.9866 7.25156 7.24423 
11.6335 5.76553 5.75978 
15.7232 4.45018 4.30577 
12.8508 4.46995 4.23452 
12.9696 7.09804 4.3903 
15.7106 7.23293 4.32136 
12.8311 4.40187 7.24392 
15.6974 4.42107 7.21135 
12.8714 7.24703 7.14301 
14.2856 5.87048 5.73169 
15.6947 7.10308 7.22782 
18.6535 4.22419 4.33085 
18.6122 7.08314 4.45132 
18.6093 4.32977 7.18362 
17.2236 5.76086 5.97041 
18.6744 7.22572 7.37632 
20.092 5.6668 5.69638 
21.4268 4.21994 4.31101 
24.4011 4.23542 4.35394 
21.5655 7.10892 4.23151 
24.3741 7.19481 4.34837 
21.4141 4.25611 7.30436 
24.2838 4.29488 7.33018 
21.4814 7.21257 7.03213 
22.8727 5.62858 5.66279 
24.5644 7.09177 7.14441 
27.1555 4.14744 4.50614 
27.1779 7.18023 4.40465 
28.6085 5.58647 5.85742 
27.3111 4.42165 7.31297 
25.8734 5.63882 5.76207 
27.2364 7.17628 7.35032 
1.48383 10.1328 4.42901 
1.5687 10.1968 7.09428 
2.80821 8.45731 5.60717 
2.95842 11.4576 5.69754 
0.0215202 11.3708 5.64439 
4.13954 10.0197 4.10654 
6.95602 9.97671 4.13382 
4.277 9.91091 7.22465 
5.72835 8.49716 5.72359 
7.32402 9.97796 7.07288 
5.70482 11.3052 5.544 
10.0082 9.8793 4.14325 
8.65638 8.65368 5.5882 
10.15 9.9813 7.15433 
11.4905 8.61855 5.8429 
8.62342 11.2918 5.513 
11.4381 11.2259 5.70718 
12.9692 9.92928 4.32662 
15.7008 9.83396 4.40652 
12.9563 10.0662 7.27981 
14.3302 8.6532 5.77317 
15.79 9.9177 7.22773 
14.2449 11.602 5.76279 
18.5502 9.98941 4.32769 
17.184 8.48978 5.89914 
18.6688 9.92512 7.26169 
20.1717 8.62673 5.85988 
17.0679 11.5102 5.83889 
19.8517 11.4135 5.6518 
21.2931 9.95784 4.26764 
24.2278 10.1169 4.29304 
21.5733 10.1795 7.23239 
22.9699 8.55931 5.71928 
22.9526 11.5324 5.90234 
24.3184 10.009 7.26439 
27.1334 10.0793 4.25384 
28.55 8.74285 5.87057 
25.7134 8.64514 5.61239 
27.2148 10.1866 7.19988 
25.8337 11.4993 5.80832 
1.43613 12.9088 4.23733 
1.27897 15.9474 4.25077 
1.42917 12.922 7.01974 
1.42456 15.9349 7.10566 
2.7393 14.4772 5.60059 
0.0701053 14.2531 5.76788 
4.20427 12.8581 4.14678 
4.14171 15.7749 4.37768 
7.1782 12.7906 4.23126 
7.12653 15.7541 4.32453 
4.12091 15.743 7.06503 
4.31231 13.1447 6.97988 
7.20693 12.9168 6.97092 
5.76501 14.3424 5.65951 
7.02034 15.7573 6.99779 
10.0904 12.9146 4.24425 
9.82511 15.4753 4.24335 
10.0352 12.8745 6.95922 
8.48034 14.2294 5.66666 
10.0331 15.6894 6.89432 
11.6612 14.2789 5.73159 
12.9885 12.7586 4.22941 
15.6741 12.7943 4.29947 
12.9449 15.8279 4.22815 
15.5674 15.7083 4.19582 
12.8502 12.8338 7.16537 
15.8786 13.0727 7.11654 
12.9654 15.8205 7.09782 
14.3799 14.3223 5.64957 
15.718 15.6747 7.1496 
18.5638 12.7828 4.14523 
18.6104 15.9282 4.31579 
18.6328 12.6028 7.25955 
17.299 14.3322 5.64458 
18.6444 15.7843 7.16765 
19.9202 14.1252 5.62005 
21.5115 12.7992 4.43086 
21.4076 15.7095 4.50249 
24.4487 13.029 4.42744 
24.266 15.6284 4.508 
21.3934 12.8786 7.32626 
21.4544 15.7622 7.3295 
22.7842 14.1943 5.96127 
24.3178 12.8271 7.28018 
24.3944 15.5753 7.26115 
27.3474 12.7728 4.43745 
27.0852 15.7718 4.41807 
27.2468 12.9858 7.31061 
25.8939 14.1744 5.90641 
27.3626 15.6777 7.19297 
1.45874 18.5664 7.111 
2.91098 17.4111 5.72856 
2.81749 19.9435 5.70566 
0.0683065 20.0467 5.56189 
4.20771 18.6991 4.33515 
7.04114 18.4524 4.14941 
4.28815 18.7346 7.20331 
5.80274 17.1987 5.76349 
7.38337 18.7375 7.0043 
5.9219 20.08 5.67351 
9.95572 18.6611 4.36674 
8.67422 17.0436 5.77034 
10.041 18.4681 7.16893 
11.2723 17.0253 5.3824 
8.65881 20.2135 5.63469 
11.3849 19.9667 5.58307 
15.6272 18.6751 4.21806 
12.9774 18.599 7.08642 
14.3079 17.1863 5.66419 
15.8888 18.6967 7.14562 
14.4429 20.1304 5.79258 
18.7349 18.6101 4.3435 
17.1016 17.1389 5.73653 
18.5614 18.5424 7.13258 
19.9901 17.2809 5.63735 
17.3383 19.9016 5.51647 
20.0322 20.1387 5.72501 
21.5901 18.6316 4.36867 
24.389 18.5975 4.40506 
21.5696 18.6777 7.46426 
22.8706 17.2698 6.00443 
23.0283 20.0197 5.67236 
24.3542 18.6563 7.14496 
27.2992 18.7675 4.20641 
28.5426 17.3169 5.61526 
25.8543 17.2616 5.99963 
27.4006 18.8735 7.21886 
25.9169 20.0805 5.61371 
1.45908 21.4784 4.21496 
1.52945 21.5861 6.77179 
2.94789 23.1768 5.62928 
1.49879 24.3908 7.21152 
0.20072 23.1258 5.70201 
6.97856 21.497 4.24037 
7.29716 24.2326 4.17948 
4.30952 24.2673 4.20722 
4.28245 21.4484 6.97118 
7.1925 21.7342 7.11923 
5.66638 22.8815 5.87535 
7.34253 24.484 6.9424 
4.29312 24.2888 7.31451 
10.0409 21.593 4.18636 
10.2 21.5825 7.11815 
8.85974 23.0418 5.70259 
10.1495 24.558 7.15014 
11.6747 22.8651 5.73759 
13.0053 21.3989 4.46837 
15.809 21.4914 4.35718 
12.9001 24.1439 4.16346 
15.921 24.3952 4.36745 
12.9572 21.4341 7.0966 
15.7843 21.3799 7.19861 
14.3857 22.8671 5.69456 
15.6757 24.4833 7.01774 
12.9334 24.4749 7.0884 
18.7291 21.5507 4.35205 
18.5628 24.583 4.33683 
18.714 21.4346 7.15882 
17.1824 22.8604 5.92882 
20.0658 23.047 5.98871 
18.5654 24.2853 7.20892 
21.4909 21.6934 4.37123 
24.3943 21.506 4.1533 
21.4741 24.4837 4.51613 
24.3681 24.2037 4.60573 
21.6593 21.4466 7.15825 
22.8779 22.922 5.84232 
24.5086 24.2271 7.11637 
24.441 21.414 7.13089 
21.4707 24.2953 7.29386 
27.4214 21.5417 4.27681 
27.5486 24.2681 4.41308 
27.374 21.5195 7.08833 
25.9855 22.8616 5.87578 
27.2396 24.3087 7.00444 
1.35267 27.3142 4.27416 
2.80346 28.7092 5.71873 
0.0632087 28.6965 5.65646 
1.31492 27.2859 7.26158 
2.99317 25.9296 5.58401 
0.0597339 25.879 5.74198 
4.28683 27.2259 4.2211 
7.08671 27.299 4.24416 
4.3809 27.4457 7.17779 
5.83076 25.6655 5.61028 
7.14724 27.1329 7.11004 
10.0655 27.4072 4.23735 
8.65889 25.8153 5.49486 
10.1316 27.5006 7.13947 
11.5227 25.8801 5.60943 
12.9243 27.3378 4.28751 
15.8905 27.2128 4.26616 
12.9644 27.4038 7.06719 
14.1742 26.0356 5.53524 
15.8395 27.296 7.19715 
18.5577 27.4549 4.46854 
17.1912 25.8724 5.75254 
18.5463 27.3612 7.16458 
20.1306 25.9277 5.71086 
21.4249 27.4536 4.49294 
24.0609 27.1043 4.50449 
21.3844 27.2879 7.3794 
22.7553 25.941 6.01196 
24.3704 27.1215 7.15332 
27.2796 27.0625 4.31742 
25.7268 28.613 6.01036 
25.7185 25.7814 5.62563 
27.2735 27.2713 7.13005 
2.73306 2.79263 8.76431 
2.78605 0.125096 8.69052 
1.24946 1.31468 10.0734 
2.82319 3.04935 11.4514 
2.74126 0.0767171 11.5291 
0.0547833 2.68558 11.5616 
5.68085 2.86405 8.60767 
4.16529 1.47102 10.0775 
7.09471 1.47987 10.1237 
5.62903 2.78096 11.4304 
5.7742 0.0507449 11.768 
8.54951 2.68718 8.4891 
11.5214 2.74436 8.70258 
11.4411 0.045994 8.70146 
9.99634 1.53603 10.06 
8.58362 2.88687 11.7096 
11.5036 2.93405 11.7018 
11.5267 0.15993 11.6925 
8.69067 0.277634 11.5057 
14.3803 2.94726 8.78355 
13.1314 1.3942 10.1344 
15.6519 1.39087 10.0907 
14.4886 2.83343 11.4984 
17.0734 2.95013 8.72024 
20.2039 2.90083 8.72019 
17.2536 0.0766323 8.65309 
18.5358 1.34577 10.0582 
17.1535 2.95258 11.5286 
20.108 3.05997 11.4986 
22.9998 2.94816 8.66104 
21.5369 1.36971 10.1147 
24.3422 1.37296 10.0721 
22.9602 2.99033 11.4849 
28.5458 2.89836 8.75968 
25.8904 2.80458 8.50417 
25.8723 0.0187315 8.76116 
27.2785 1.43734 10.0857 
25.8298 2.88096 11.5168 
2.90521 5.78704 8.54102 
0.0967546 5.76283 8.62141 
1.27858 4.41718 10.1078 
1.46339 7.16027 10.105 
2.95819 5.93239 11.4641 
5.84872 5.78577 8.66612 
4.35756 7.16102 9.8113 
7.0957 4.2925 10.084 
4.39361 4.36687 10.0181 
7.49455 7.17743 10.072 
5.79665 5.8988 11.4239 
8.52855 5.48557 8.4241 
11.6164 5.65636 8.69785 
10.0796 4.18174 10.2419 
10.09 6.88335 9.96515 
8.55279 5.68491 11.5913 
11.5496 5.68303 11.6884 
14.2873 5.73685 8.59979 
15.7893 4.33697 10.2255 
12.9192 4.40029 10.3283 
12.8197 7.2164 10.1773 
15.5727 7.01184 10.0639 
14.2677 5.84969 11.6095 
17.173 5.73235 8.77083 
20.2275 5.64745 8.70836 
18.565 4.38211 10.0219 
18.7358 7.19448 10.1963 
17.097 5.79658 11.6078 
20.1157 5.61212 11.3356 
22.9031 5.89267 8.52211 
21.5062 4.37031 10.1554 
21.6438 7.05959 10.1025 
22.9263 5.80216 11.5767 
24.414 7.1396 10.1262 
24.4462 4.2443 10.1875 
25.7387 5.75577 8.67666 
27.2441 4.21578 10.0877 
28.5196 5.84717 11.5664 
27.3208 7.15101 9.89501 
25.8304 5.61368 11.4437 
2.8294 8.43527 8.55506 
2.99834 11.5201 8.53552 
0.075058 11.5055 8.44971 
0.0424002 8.69161 8.583 
1.54322 10.0121 9.91667 
2.95775 8.78794 11.4019 
2.95976 11.5183 11.2993 
0.0863713 11.4452 11.2915 
0.0955516 8.55398 11.3117 
5.89068 8.50261 8.68691 
5.67372 11.5066 8.30017 
4.32702 9.94145 9.98026 
7.28859 9.93654 10.0977 
5.74113 8.84706 11.4895 
5.75422 11.6144 11.459 
8.7071 8.6368 8.47274 
11.5776 8.73746 8.6865 
8.48702 11.6221 8.47029 
11.3554 11.5907 8.53269 
9.89092 10.0799 10.0266 
8.85555 8.52026 11.4351 
11.5054 8.6221 11.7352 
8.73966 11.5042 11.5345 
11.5555 11.5487 11.5377 
14.321 8.55276 8.69165 
14.3915 11.5442 8.54548 
12.9512 10.278 10.1302 
15.7301 9.98982 10.0922 
14.4599 8.53366 11.5237 
14.338 11.7364 11.3539 
17.1062 8.42172 8.81709 
20.109 8.67646 8.64757 
17.3178 11.111 8.69533 
20.229 11.5094 8.75859 
18.4985 10.0697 10.2002 
16.996 8.6706 11.4405 
20.0825 8.61746 11.5675 
17.1151 11.4205 11.5084 
19.7397 11.4718 11.5624 
23.0377 8.51993 8.65493 
23.0194 11.362 8.87452 
21.5205 10.1171 10.2293 
22.9126 8.71638 11.6295 
22.9108 11.5375 11.8073 
24.3033 9.89807 10.2211 
25.7392 8.60195 8.80841 
25.744 11.448 8.81855 
27.4386 10.0371 10.1045 
25.882 8.55673 11.7051 
25.9107 11.498 11.4436 
2.91521 14.3536 8.77416 
0.07833 14.2208 8.66942 
1.56714 12.975 10.0334 
1.48393 15.9376 10.0918 
2.94128 14.3876 11.5809 
0.0505898 14.2395 11.2655 
5.8807 14.2742 8.49718 
4.5391 15.8379 10.1275 
4.35 12.8762 9.94536 
7.27228 12.7847 10.0653 
7.13419 15.7093 9.97623 
5.71386 14.3896 11.4827 
8.53526 14.3402 8.54611 
11.5528 14.2759 8.46236 
10.0642 12.912 9.95637 
9.9837 15.8355 10.007 
8.63773 14.3847 11.3167 
11.4123 14.4472 11.3614 
14.3165 14.2742 8.60284 
12.9512 13.0746 9.99065 
16.0185 12.953 9.87885 
12.7455 15.8964 9.91414 
15.6573 15.6867 10.0804 
14.2699 14.3839 11.4464 
17.2614 14.3705 8.45403 
19.9911 14.289 8.47621 
18.6688 12.826 10.0628 
18.5315 15.7479 9.91559 
17.1065 14.4105 11.4886 
19.8455 14.3739 11.3996 
22.8101 14.3192 8.75202 
21.3725 12.8155 10.2125 
21.5376 15.8476 10.0904 
22.8851 14.2782 11.6888 
24.3161 15.6156 10.085 
24.254 12.8386 10.1569 
25.6893 14.1574 8.68545 
27.4439 12.8016 9.93983 
27.2261 15.5901 9.96017 
25.8372 14.2498 11.3871 
2.95381 17.3074 8.6281 
2.80568 20.156 8.47507 
0.108951 20.1813 8.49286 
1.50129 18.9482 9.89389 
2.70695 17.3491 11.4563 
2.72605 20.341 11.4745 
0.144608 20.1031 11.5117 
0.012284 17.2218 11.5996 
5.75502 17.1551 8.62809 
5.90704 20.0953 8.45667 
4.39069 18.8928 9.90885 
7.24024 18.5967 9.99629 
5.85528 17.3474 11.6067 
5.94559 20.1303 11.3848 
8.50222 17.177 8.57625 
11.2818 16.9447 8.49656 
8.69409 20.0669 8.50313 
11.5572 19.9741 8.62961 
10.0204 18.7146 10.1564 
8.72669 17.1595 11.4016 
11.4709 17.2761 11.3675 
8.59196 20.0008 11.4243 
11.4335 20.2179 11.3423 
14.2465 17.3078 8.56997 
14.3067 19.9404 8.51116 
12.8049 18.5536 10.0154 
15.7964 18.6208 10.0743 
14.3655 17.2578 11.5274 
14.1411 19.9474 11.3586 
17.151 17.1253 8.52646 
20.0622 17.1158 8.60533 
17.1581 20.273 8.67608 
20.0196 20.0202 8.60125 
18.4825 18.639 9.86981 
17.1671 17.1608 11.6199 
20.0297 17.2386 11.625 
17.2059 20.2984 11.4008 
20.008 19.829 11.2827 
23.0355 17.3279 8.7561 
23.1332 20.1327 8.63182 
21.7312 18.6423 10.1462 
23.1178 17.0144 11.564 
23.0886 20.1669 11.6255 
24.3969 18.607 9.95377 
28.6306 17.2053 8.49775 
25.9755 17.3233 8.65486 
25.8979 19.9877 8.53897 
27.3348 18.8029 10.052 
26.0522 17.1007 11.502 
25.7771 20.0462 11.4309 
2.74933 22.9499 8.65126 
1.29931 24.4887 10.037 
1.43569 21.6246 10.0419 
3.08164 22.862 11.5618 
5.63908 22.9987 8.7387 
4.31959 24.5341 10.3087 
7.1298 24.3267 10.0025 
4.3149 21.6556 9.89203 
7.34357 21.444 9.7315 
5.70192 22.9879 11.4982 
8.508 23.0262 8.39231 
11.5773 22.9546 8.62916 
9.95067 24.518 9.96832 
10.1544 21.5698 9.89103 
8.60362 22.8912 11.3728 
11.513 23.1394 11.3739 
14.3399 22.8726 8.51872 
14.2353 23.1512 11.2933 
13 21.5268 9.91152 
15.5774 21.4213 9.9624 
17.2416 22.8233 8.58166 
20.2492 22.709 8.52988 
18.5817 24.3383 10.0492 
18.6589 21.5631 10.038 
16.9811 22.9153 11.3375 
19.9944 23.1073 11.331 
22.9987 22.8115 8.63649 
21.5596 21.5356 10.133 
21.5488 24.3277 10.0643 
24.5682 21.5148 10.0258 
23.2406 22.932 11.628 
24.4603 24.2615 10.048 
28.6433 22.8549 8.59374 
25.8806 22.8574 8.58186 
28.5544 23.0071 11.4405 
26.0662 22.9967 11.4817 
27.2849 21.6162 9.97703 
3.04274 26.1561 8.50885 
2.95824 25.8098 11.5932 
1.4321 27.1255 9.87314 
5.84144 28.688 8.72233 
5.71889 25.9838 8.72112 
4.32297 27.2762 10.36 
5.93963 25.9586 11.5995 
6.95276 27.4208 10.2325 
8.42778 28.6956 8.67223 
8.7273 25.8053 8.50239 
11.4486 25.9852 8.58961 
11.4441 25.9734 11.4732 
8.5912 25.9204 11.4226 
10.0074 27.4228 10.0421 
14.451 28.6813 8.55311 
14.2143 25.9819 8.55792 
14.2491 28.536 11.567 
14.3223 25.9987 11.3741 
15.7357 27.1804 9.88414 
12.8478 27.3991 9.99544 
12.9527 24.6112 9.99065 
15.6438 24.6289 9.90743 
20.0291 28.6819 8.72365 
17.2743 25.7098 8.62028 
20.1346 25.707 8.56797 
20.0594 28.6538 11.3353 
17.0509 28.6069 11.3083 
17.2622 25.8307 11.5525 
18.7082 27.0896 10.1024 
20.0883 25.6822 11.4819 
22.8677 28.6847 8.66945 
23.0442 25.6824 8.64903 
21.5568 27.1625 10.1503 
24.2419 27.2455 10.0946 
23.0461 25.778 11.6867 
22.9066 28.5513 11.6221 
28.6228 25.6839 8.4876 
28.6879 28.522 8.80629 
25.8166 25.8121 8.52981 
28.7088 28.5831 11.526 
27.0354 27.3103 10.0749 
25.8259 25.8893 11.2704 
25.916 28.6618 11.6729 
28.5906 25.895 11.548 
27.2649 24.6176 10.0268 
1.53325 1.47369 12.9498 
2.87023 2.88287 14.2541 
2.96294 0.0940143 14.3097 
0.0176214 0.0413147 14.2345 
1.47694 1.38782 15.7722 
0.110662 2.88676 14.3772 
4.28404 1.60403 12.866 
7.13642 1.42879 12.9814 
5.91371 0.0413544 14.277 
4.40371 1.52764 15.7608 
7.01263 1.43674 15.8185 
5.74003 2.95151 14.3954 
10.0889 1.41343 13.0924 
11.5318 2.79753 14.3191 
10.1273 1.52793 16.0577 
8.52307 2.84767 14.5638 
8.56623 0.0606693 14.4583 
13.1501 1.38004 13.1526 
15.846 1.35826 12.8921 
15.7244 4.02922 12.941 
13.0526 1.49202 15.8338 
15.8843 1.50188 15.8023 
14.4006 2.85905 14.4906 
20.104 0.255231 14.3548 
18.5714 1.50362 12.725 
20.0928 2.92018 14.2323 
17.2642 0.11327 14.2598 
17.4352 2.72556 14.2971 
18.762 1.40284 15.8212 
21.7429 1.49455 12.8906 
24.5993 1.63078 12.9281 
22.9129 2.91336 14.3523 
21.6606 1.32675 15.7903 
24.4014 1.66851 15.8072 
27.224 1.65484 13.0795 
27.4468 1.4189 15.7197 
25.7051 0.0721466 14.5227 
25.9129 3.12603 14.5021 
1.27635 4.38431 12.8222 
1.4759 7.26579 12.8459 
0.0533453 5.882 14.4278 
1.67416 4.40516 15.5965 
1.57899 7.19333 15.7838 
2.90146 5.73703 14.3778 
4.33283 4.39311 12.909 
4.29164 7.14514 12.861 
7.36901 4.44115 13.0289 
7.14594 7.22399 12.8721 
4.41402 4.3886 15.7367 
4.37964 7.33621 15.7899 
7.30198 4.33209 15.7688 
7.25256 7.15423 15.76 
5.93218 5.86364 14.3583 
10.182 4.28072 13.0576 
10.0704 7.07018 12.9315 
10.2571 4.36491 15.8219 
10.1182 7.19798 15.8161 
11.5704 5.78702 14.4999 
8.87026 5.65099 14.3972 
13.0933 4.15734 13.0948 
12.9924 7.18366 12.9383 
15.8214 7.19594 13.095 
14.5697 5.67554 14.3122 
13.0577 4.29735 15.7711 
15.7822 4.26928 15.9234 
13.0121 7.04422 15.7565 
15.8862 7.16909 15.9599 
18.709 4.45892 12.8168 
18.6535 7.0966 12.9084 
18.7612 4.31625 16.0137 
18.625 7.11545 16.0582 
17.2687 5.65472 14.4957 
20.0813 5.85525 14.6415 
21.5761 4.50178 13.1481 
24.3636 4.52738 12.9361 
21.4924 7.25402 12.9992 
24.461 7.22351 12.8546 
21.5813 4.29201 15.7113 
24.3239 4.41786 15.7184 
21.4629 7.1042 15.8405 
24.4351 7.2859 15.7854 
23.0987 5.76246 14.3917 
25.9212 5.85181 14.3127 
27.2638 4.26503 13.0089 
27.3157 7.22129 13.0626 
27.4348 4.46408 15.7384 
27.2625 7.22 15.9421 
1.5831 10.1834 12.8234 
2.85941 8.8715 14.3515 
2.96009 11.6091 14.3162 
1.43686 10.2387 15.8232 
0.172409 8.74604 14.3626 
5.78733 8.54027 14.3453 
4.47991 10.0656 13.0484 
7.30843 10.0828 12.9418 
4.31362 9.81428 15.9082 
7.27218 10.0736 15.7039 
5.8471 11.5306 14.3845 
10.2457 10.0934 12.8892 
11.4484 8.36873 14.3071 
10.1327 9.95812 15.9964 
8.45138 8.7064 14.3705 
11.4874 11.3912 14.5038 
8.85706 11.2945 14.3691 
12.9571 10.0462 12.981 
15.6996 10.2558 13.0717 
12.9153 10.0304 15.9452 
15.6844 10.0609 15.8864 
14.3452 11.4673 14.4102 
14.1542 8.63579 14.4287 
18.4779 9.97468 13.1678 
18.3711 9.96923 15.9611 
17.0567 8.33665 14.5179 
19.993 11.491 14.5985 
19.9016 8.53438 14.396 
17.2993 11.4465 14.6581 
21.3756 10.0784 13.0266 
24.4242 10.0461 13.1396 
21.3841 9.98615 15.8068 
24.5784 10.128 15.8828 
22.8106 8.66609 14.4844 
22.8106 11.5635 14.5307 
27.2961 10.2013 12.8798 
28.6111 11.5546 14.1382 
27.3416 10.1483 15.8308 
26.0424 8.70887 14.4988 
25.8335 11.5113 14.419 
1.42382 12.7863 12.8733 
1.49079 15.751 12.8856 
2.95882 14.3251 14.3514 
0.0097941 14.3093 14.2004 
1.35718 13.0412 15.7421 
1.50208 15.877 15.5566 
4.29697 15.9752 12.9865 
4.42071 12.9479 12.9714 
7.04842 12.9495 12.9581 
7.34698 15.6719 12.8545 
5.72864 14.5166 14.3558 
4.57485 12.9245 15.7089 
4.35602 15.7994 15.7894 
7.38665 12.9793 15.7074 
7.30945 15.9115 15.655 
8.65582 14.4604 14.354 
10.0085 13.1037 12.928 
10.2247 15.8772 13.0161 
11.6049 14.236 14.2503 
10.3049 12.8472 15.6743 
10.0989 15.734 15.7505 
12.889 12.8149 12.8863 
15.7425 12.9921 13.0345 
12.9466 15.7156 12.9603 
15.7432 15.7238 13.1711 
12.9849 13.0248 15.9394 
15.8757 13.0318 15.971 
12.7334 15.8218 15.6475 
15.7931 15.8673 15.8135 
14.4271 14.4588 14.4717 
18.3943 12.884 13.1786 
18.5614 15.6739 12.8953 
18.6979 12.9591 15.9964 
18.6261 15.9096 15.774 
17.2548 14.3781 14.4321 
19.9843 14.3514 14.3791 
21.3697 12.967 12.8532 
21.481 15.697 12.7997 
24.5413 12.885 13.0731 
23.0359 14.541 14.2153 
24.4232 15.7497 12.9658 
21.5111 13.0682 15.7212 
21.5428 15.8675 15.6969 
24.4161 16.0135 15.671 
24.267 12.941 15.8864 
27.2427 13.0262 12.8611 
27.2744 15.6086 12.9486 
27.4594 12.8051 15.8549 
27.387 15.7967 15.7607 
25.9756 14.2623 14.574 
3.02735 20.2054 14.3547 
0.087747 17.1854 14.3472 
1.41877 18.7939 13.0332 
2.88046 17.2769 14.2871 
1.47704 18.6827 15.7735 
4.28278 18.8301 12.6977 
7.37381 18.6024 12.8473 
5.89038 17.4431 14.2573 
4.3398 18.8075 15.6674 
7.21467 18.5222 15.7907 
5.94417 20.0398 14.4859 
11.4657 17.4648 14.3171 
8.58437 17.1942 14.3329 
9.91687 18.6565 12.851 
11.5378 20.2125 14.1982 
8.56729 20.0425 14.2933 
9.9655 18.7092 15.9887 
12.826 18.6123 12.9115 
15.8587 18.6604 12.9128 
14.2631 17.3275 14.2756 
12.896 18.5962 15.7488 
15.9072 18.663 15.7009 
14.4568 19.85 14.3608 
17.4157 20.0181 14.2092 
18.6613 18.6226 12.7651 
17.2786 17.2447 14.2379 
20.1172 20.1397 14.2943 
18.8336 18.9546 15.8272 
20.0819 17.3402 14.3685 
22.9077 17.2123 14.2098 
21.443 18.587 13.0358 
24.5882 18.6253 12.9673 
21.6641 18.715 15.6879 
24.4275 18.7878 15.8472 
23.035 20.3138 14.5391 
25.9433 17.1924 14.3164 
27.3163 18.5512 12.9295 
28.6996 20.2388 14.465 
27.1519 18.5449 15.7349 
25.8097 20.1289 14.4609 
1.43995 21.7333 12.9565 
1.52323 24.5099 12.9838 
2.71874 23.1178 14.3262 
1.49075 21.4589 15.7784 
1.44657 24.556 15.9336 
0.0543937 23.1449 14.5458 
4.52426 21.6309 12.9802 
7.04685 21.5004 12.9303 
7.39624 24.4073 12.932 
4.34573 21.566 15.8709 
7.40647 21.6987 15.7361 
7.3251 24.2862 15.6152 
4.24153 24.4653 15.745 
5.77436 22.9412 14.496 
11.7022 22.9731 14.3386 
10.1589 24.3716 12.947 
10.0685 21.5354 12.844 
8.80178 22.8219 14.335 
10.2158 21.4139 15.8452 
9.9125 24.4375 15.6376 
15.6849 24.3439 12.8934 
15.6509 21.4903 12.8789 
13.1676 21.5568 12.9328 
14.4616 22.8697 14.2563 
13.0689 21.6178 15.8038 
15.8887 21.3559 15.5646 
15.674 24.1895 15.6731 
13.0335 24.3531 15.8532 
18.4654 24.5864 12.8792 
18.8136 21.6112 12.88 
20.2845 22.9541 14.204 
17.1661 23.0124 14.2132 
18.5903 21.662 15.6856 
18.8074 24.4032 15.7102 
24.6004 24.2955 13.0564 
21.7776 24.3698 12.878 
24.5029 21.4847 13.0825 
21.4868 21.5023 12.7684 
21.4507 21.7395 15.6888 
24.5447 21.5248 15.9592 
21.4976 24.5902 15.8064 
22.9233 22.791 14.3747 
25.8125 22.887 14.3448 
27.3099 21.6042 12.9174 
24.7177 24.3757 15.746 
27.2204 21.5866 15.915 
27.2784 24.372 15.6856 
0.0451649 25.9436 14.2551 
2.97897 25.9604 14.2545 
1.63262 27.3202 12.9477 
1.55621 27.3528 15.4743 
7.30299 27.3321 13.0263 
4.3441 27.5114 12.8691 
4.50698 24.6255 12.9403 
5.68039 25.8352 14.3235 
4.26016 27.5166 15.6124 
7.10697 27.2364 15.8368 
10.2163 27.2298 12.9223 
8.67767 26.035 14.2478 
9.92175 27.439 15.8431 
11.4872 25.8685 14.3987 
11.7076 28.6111 14.5496 
15.7687 27.2399 13.1324 
12.9948 27.248 12.9645 
12.8517 24.6117 12.8813 
14.3372 25.925 14.2377 
14.323 28.6951 14.5355 
13.038 27.0474 15.8594 
15.9423 27.2876 15.7196 
20.1454 25.9377 14.3022 
18.6666 27.3089 12.9209 
17.1387 25.8296 14.2732 
18.7789 27.4522 15.8241 
24.4386 27.2191 12.8217 
21.4671 27.1988 12.9578 
23.1911 28.6901 14.2385 
21.6112 27.2076 15.802 
24.3391 27.2891 15.946 
23.0915 25.8165 14.4061 
27.2296 27.4303 12.9927 
27.2648 24.625 12.9466 
27.4714 27.3253 15.7457 
25.8158 25.9694 14.3843 
1.30205 1.49736 18.6283 
2.82266 2.88564 17.0823 
2.79332 2.99688 20.0315 
0.00862561 2.85385 20.0963 
2.86466 0.0901274 19.8865 
4.15897 1.48647 18.6734 
6.99183 1.44884 18.6918 
5.62351 2.8196 17.1472 
5.60494 0.00315851 17.2569 
5.81162 3.05978 20.1919 
5.46655 0.00489951 19.9426 
10.1138 1.24223 18.599 
8.56001 2.79741 17.1184 
11.6704 2.72885 17.0379 
8.54785 2.75364 19.92 
11.5201 2.64241 19.909 
8.49 0.0365717 20.0236 
12.9474 1.20937 18.7123 
15.8963 1.42871 18.6297 
14.3457 2.8633 17.3113 
14.2703 2.86793 19.9438 
18.6956 1.56226 18.8109 
17.2771 2.74814 17.2802 
20.1866 2.87979 17.2724 
20.2629 0.0263314 17.2381 
17.0661 2.7818 20.2183 
20.2742 2.87758 20.0344 
17.2799 0.0150307 20.1087 
21.7706 1.3252 18.704 
22.9761 2.99016 17.2595 
24.2611 1.46629 18.6714 
23.1117 0.0152877 17.208 
23.2283 2.78882 20.3284 
28.6152 2.92059 17.1242 
27.2967 1.41669 18.5999 
25.9274 3.01819 17.1905 
25.8322 0.0461867 17.1489 
28.6422 0.199266 17.2446 
25.7572 2.92694 20.1025 
26.0061 0.0470382 20.0298 
1.40581 4.28006 18.4576 
1.70694 7.1705 18.6973 
2.95141 5.73527 17.2511 
0.138141 5.7671 16.9685 
2.91235 5.61351 20.3338 
0.176348 5.86303 19.9082 
4.26831 7.29049 18.5919 
4.46337 4.41056 18.5926 
7.26552 4.21127 18.5017 
5.93766 5.7033 17.1701 
7.15902 7.0834 18.5764 
5.76586 5.82678 20.214 
10.1808 4.29895 18.5032 
8.75879 5.61819 17.2185 