ITEM: TIMESTEP
48041
ITEM: NUMBER OF ATOMS
18
ITEM: BOX BOUNDS pp pp pp
0.0000000000000000e+00 2.8712000000000000e+01
0.0000000000000000e+00 2.8712000000000000e+01
0.0000000000000000e+00 2.8712000000000000e+01
ITEM: ATOMS x y z c_cna 
22.966 8.61222 0.0979125 5 
21.5436 7.21805 24.4367 5 
24.3884 7.21802 24.4367 5 
22.966 8.6214 22.8611 5 
22.9659 11.4372 23.0152 5 
21.1283 10.203 24.2494 5 
24.8035 10.2029 24.2494 5 
21.1284 7.03082 27.4215 5 
22.9659 5.64246 25.8401 5 
22.966 5.79657 28.6559 5 
22.9659 7.86781 26.5845 5 
24.8036 7.03074 27.4216 5 
20.1319 8.61683 25.8355 5 
22.9659 9.3658 25.0864 5 
21.5435 10.0156 27.2342 5 
22.9659 11.5912 25.8308 5 
24.3883 10.0155 27.2342 5 
25.8 8.61679 25.8355 5 
ITEM: TIMESTEP
48042
ITEM: NUMBER OF ATOMS
18
ITEM: BOX BOUNDS pp pp pp
0.0000000000000000e+00 2.8712000000000000e+01
0.0000000000000000e+00 2.8712000000000000e+01
0.0000000000000000e+00 2.8712000000000000e+01
ITEM: ATOMS x y z c_cna 
22.966 8.61222 0.0979125 5 
21.5436 7.21805 24.4367 5 
24.3884 7.21802 24.4367 5 
22.966 8.6214 22.8611 5 
22.9659 11.4372 23.0152 5 
21.1283 10.203 24.2494 5 
24.8035 10.2029 24.2494 5 
21.1284 7.03082 27.4215 5 
22.9659 5.64246 25.8401 5 
22.966 5.79657 28.6559 5 
22.9659 7.86781 26.5845 5 
24.8036 7.03074 27.4216 5 
20.1319 8.61683 25.8355 5 
22.9659 9.3658 25.0864 5 
21.5435 10.0156 27.2342 5 
22.9659 11.5912 25.8308 5 
24.3883 10.0155 27.2342 5 
25.8 8.61679 25.8355 5 
