ITEM: TIMESTEP
48041
ITEM: NUMBER OF ATOMS
2001
ITEM: BOX BOUNDS pp pp pp
0.0000000000000000e+00 2.8712000000000000e+01
0.0000000000000000e+00 2.8712000000000000e+01
0.0000000000000000e+00 2.8712000000000000e+01
ITEM: ATOMS x y z c_cna 
1.44263 1.42878 1.43655 3 
2.87623 2.86753 2.87308 3 
0.016501 2.85527 2.8854 3 
0.0145768 2.85803 0.00175185 3 
4.30813 1.4341 1.43329 3 
7.17578 1.43623 1.43214 3 
5.74191 2.87145 2.86911 3 
10.0443 1.43624 1.43218 3 
8.61 2.87237 2.86819 3 
11.4782 2.87141 2.86917 3 
8.61 0.000507929 2.86808 3 
12.912 1.43401 1.43337 3 
15.7774 1.4287 1.43658 3 
14.3438 2.8674 2.87319 3 
18.6492 1.42828 1.44102 3 
17.2035 2.85525 2.88542 3 
20.0942 2.86577 2.87492 3 
20.0781 2.86069 0.0107779 3 
17.2054 2.85799 0.00177477 3 
21.5303 1.43559 1.43406 3 
22.966 2.86697 2.87376 3 
24.4017 1.43561 1.4341 3 
22.966 2.08101e-05 2.86911 3 
27.2828 1.42827 1.44102 3 
25.8378 2.86578 2.87492 3 
25.8538 2.86067 0.0107667 3 
1.44531 4.30012 1.44041 3 
1.44186 7.17933 1.43779 3 
2.87495 5.74292 2.87219 3 
0.0145925 5.73884 2.88247 3 
0.0138106 5.73195 0.00846654 3 
4.30779 4.30668 1.43385 3 
7.1756 4.30837 1.43212 3 
4.30681 7.18028 1.43304 3 
7.17541 7.18065 1.43168 3 
5.74143 5.74435 2.86866 3 
10.0445 4.30832 1.43217 3 
10.0448 7.18062 1.43174 3 
8.61006 5.74467 2.86783 3 
11.4787 5.74429 2.86875 3 
15.7747 4.30007 1.44048 3 
12.9123 4.30659 1.43396 3 
12.9133 7.18026 1.43318 3 
15.7781 7.17936 1.43786 3 
14.3451 5.74291 2.87232 3 
18.6154 4.26904 1.47152 3 
19.9909 5.64737 0.0931063 3 
18.6271 7.17958 1.45748 3 
17.2054 5.73882 2.88254 3 
20.0781 5.72981 2.87987 3 
17.2062 5.73199 0.00851094 3 
24.3914 4.30426 1.43636 3 
21.5406 4.30425 1.43634 3 
21.4993 7.15852 1.44107 3 
22.966 5.74511 2.86429 3 
24.4327 7.15851 1.44103 3 
27.3166 4.26901 1.47156 3 
27.3049 7.17957 1.45746 3 
25.8539 5.72986 2.87989 3 
25.9411 5.64738 0.0930824 3 
1.4404 10.0555 1.43549 3 
2.87368 8.61759 2.87065 3 
2.87282 11.4907 2.8693 3 
0.0061782 11.4952 2.87395 3 
0.0103816 8.62064 2.87829 3 
0.00830436 8.61921 0.0035812 3 
4.30663 10.0532 1.43219 3 
7.17539 10.0527 1.43121 3 
5.7411 8.61697 2.868 3 
5.74097 11.4892 2.86743 3 
10.0448 10.0527 1.43129 3 
8.61007 8.61686 2.86735 3 
11.479 8.61697 2.86809 3 
8.61007 11.4888 2.86699 3 
11.4792 11.4891 2.86756 3 
12.9135 10.0532 1.43232 3 
15.7797 10.0555 1.43561 3 
14.3464 8.61764 2.87082 3 
14.3473 11.4907 2.86948 3 
18.6383 10.0673 1.44824 3 
17.2097 8.62064 2.87838 3 
20.0851 8.6165 2.87443 3 
17.2138 11.4952 2.87409 3 
20.0901 11.4927 2.87104 3 
20.0493 8.64909 0.0452853 3 
17.2117 8.6192 0.00365349 3 
21.5208 10.0621 1.44208 3 
22.966 8.60742 2.86755 3 
22.9659 11.4887 2.86731 3 
24.4112 10.0621 1.44205 3 
22.966 8.61222 0.0979125 5 
27.2936 10.0673 1.44814 3 
25.8469 8.61651 2.87436 3 
25.8418 11.4927 2.87097 3 
25.8827 8.64905 0.0452585 3 
1.43742 12.9258 1.43223 3 
1.43676 15.7992 1.43392 3 
2.87095 14.3614 2.86774 3 
0.00608523 14.3675 0.00167183 3 
4.3061 15.7974 1.43206 3 
4.30639 12.9253 1.4316 3 
7.17543 12.9247 1.43101 3 
7.17537 15.7964 1.43124 3 
5.74062 14.3608 2.86712 3 
10.0448 12.9247 1.43107 3 
10.0448 15.7965 1.43127 3 
8.6101 14.3605 2.86685 3 
11.4795 14.3607 2.86723 3 
12.9137 12.9252 1.43168 3 
15.7826 12.9258 1.43232 3 
12.9139 15.7974 1.43218 3 
15.7832 15.7992 1.43407 3 
14.3491 14.3613 2.86788 3 
18.6556 12.9237 1.43026 3 
18.6566 15.7977 1.43293 3 
17.2207 14.3608 2.86741 3 
20.0944 14.3582 2.86483 3 
17.2138 14.3675 0.00178812 3 
21.5307 12.9188 1.42548 3 
21.5302 15.7953 1.43058 3 
22.9659 14.357 2.86357 3 
24.4012 12.9188 1.42545 3 
24.4016 15.7953 1.43053 3 
28.7112 14.3608 2.86728 3 
27.2763 12.9236 1.43017 3 
27.2752 15.7977 1.43282 3 
25.8375 14.3582 2.86474 3 
1.43354 18.6681 1.43193 3 
2.8699 17.2328 2.86803 3 
2.86832 20.1025 2.86727 3 
4.30499 18.6681 1.43191 3 
7.17513 18.6675 1.43146 3 
5.74021 17.2321 2.86731 3 
5.73957 20.1025 2.86734 3 
10.045 18.6675 1.43147 3 
8.61009 17.2318 2.86702 3 
11.4799 17.2322 2.86741 3 
8.61007 20.1023 2.86722 3 
11.4805 20.1026 2.86741 3 
12.9151 18.6682 1.43198 3 
15.7864 18.6681 1.43204 3 
14.3501 17.2329 2.86817 3 
14.3517 20.1026 2.86744 3 
18.6588 18.6669 1.43099 3 
17.2223 17.2322 2.86764 3 
20.0948 17.2308 2.86624 3 
17.2235 20.1021 2.86683 3 
20.095 20.1016 2.86599 3 
21.5304 18.666 1.4299 3 
24.4013 18.6659 1.42984 3 
22.9659 17.2303 2.86562 3 
22.966 20.1014 2.86558 3 
28.7084 20.1021 2.86662 3 
28.7096 17.2321 2.86748 3 
27.273 18.6669 1.43087 3 
25.8371 17.2308 2.86614 3 
25.8369 20.1016 2.86585 3 
1.43238 21.5375 1.43125 3 
2.86822 22.972 2.8673 3 
1.43301 24.407 1.43163 3 
4.30445 24.4068 1.43166 3 
4.30399 21.5376 1.43157 3 
7.17483 21.5375 1.43152 3 
5.73947 22.972 2.8674 3 
7.17501 24.4069 1.43157 3 
10.0452 21.5375 1.43152 3 
8.61006 22.972 2.86737 3 
11.4806 22.972 2.86744 3 
10.0451 24.4069 1.43159 3 
12.9161 21.5376 1.4316 3 
15.7876 21.5375 1.43137 3 
14.3518 22.9721 2.86743 3 
12.9156 24.4068 1.43173 3 
15.787 24.4071 1.43174 3 
18.6592 21.5372 1.4307 3 
17.2234 22.9722 2.867 3 
20.0949 22.9723 2.86634 3 
18.6587 24.4076 1.43135 3 
21.5305 21.537 1.43005 3 
24.4014 21.537 1.42996 3 
22.966 22.9724 2.86598 3 
24.4017 24.408 1.43067 3 
21.5303 24.408 1.43073 3 
28.7085 22.9722 2.86683 3 
27.2726 21.5372 1.43057 3 
25.837 22.9723 2.86622 3 
27.2733 24.4076 1.43125 3 
2.8737 28.7088 2.87057 3 
0.00256856 28.708 2.87286 3 
1.43589 27.2753 1.43317 3 
2.86986 25.8409 2.86832 3 
5.74159 28.7116 2.86863 3 
4.30648 27.2757 1.43231 3 
7.17554 27.277 1.43182 3 
5.74044 25.8413 2.86788 3 
11.4784 28.7115 2.86871 3 
10.0445 27.2769 1.43187 3 
8.61 25.8417 2.86771 3 
11.4796 25.8413 2.86793 3 
14.3464 28.7088 2.87072 3 
12.9136 27.2757 1.43239 3 
15.7842 27.2752 1.43326 3 
14.3502 25.8409 2.86842 3 
17.2175 28.708 2.87294 3 
20.0938 28.7113 2.87 3 
18.6566 27.2767 1.43354 3 
17.222 25.8415 2.86849 3 
20.0945 25.8425 2.86748 3 
21.53 27.2784 1.43198 3 
22.966 25.8428 2.86703 3 
24.4021 27.2784 1.43197 3 
25.8382 28.7113 2.86998 3 
28.71 25.8415 2.8684 3 
27.2754 27.2767 1.43351 3 
25.8376 25.8425 2.86743 3 
1.44194 1.42893 4.31174 3 
1.43563 1.43461 7.17773 3 
2.87378 2.87011 5.7437 3 
0.00261745 2.86789 5.74463 3 
4.30827 1.43401 4.30655 3 
7.17582 1.43608 4.30443 3 
4.30645 1.43561 7.177 3 
7.17546 1.43648 7.17572 3 
5.74161 2.87197 5.74089 3 
10.0441 1.43606 4.30448 3 
10.0444 1.43649 7.17576 3 
8.60997 2.87251 5.73998 3 
11.4784 2.87189 5.74095 3 
8.60997 0.000478583 5.73999 3 
12.9118 1.43392 4.30665 3 
15.7781 1.42881 4.31186 3 
12.9135 1.43553 7.17708 3 
15.7844 1.43452 7.1778 3 
14.3463 2.86996 5.7438 3 
18.6563 1.43197 4.30877 3 
18.6581 1.43581 7.17636 3 
17.2174 2.8678 5.74472 3 
20.0938 2.87078 5.74137 3 
21.5301 1.43351 4.30723 3 
24.402 1.43351 4.30723 3 
21.5303 1.43664 7.17571 3 
24.4018 1.43668 7.17568 3 
22.966 2.8717 5.74066 3 
27.2757 1.43199 4.30873 3 
27.274 1.43589 7.17632 3 
25.8383 2.87082 5.74135 3 
1.44264 4.30415 4.31181 3 
1.44095 7.18092 4.30978 3 
1.43601 4.3076 7.1773 3 
1.43543 7.18097 7.17632 3 
2.87328 5.74423 5.74289 3 
0.00242783 5.74285 5.7431 3 
4.30746 7.18094 4.30552 3 
7.17578 4.30851 4.30424 3 
4.30816 4.30738 4.3064 3 
7.17562 7.18096 4.3037 3 
4.30624 7.18126 7.1761 3 
4.30657 4.30841 7.17673 3 
7.1755 4.30883 7.17548 3 
5.74143 5.74482 5.74041 3 
7.17547 7.18122 7.17502 3 
10.0443 4.30843 4.30427 3 
10.0445 7.18092 4.30377 3 
10.0444 4.30876 7.17552 3 
8.61001 5.74492 5.73958 3 
10.0446 7.18117 7.17506 3 
11.4786 5.74471 5.7405 3 
12.9119 4.30727 4.30652 3 
15.7773 4.30411 4.31188 3 
12.9126 7.18092 4.30567 3 
15.7791 7.18094 4.30991 3 
12.9135 4.30832 7.1768 3 
15.784 4.30752 7.17735 3 
12.9138 7.18122 7.1762 3 
14.3467 5.7442 5.74298 3 
15.7846 7.18099 7.17644 3 
18.6491 4.29967 4.31237 3 
18.6507 7.17877 4.30877 3 
18.6565 4.30721 7.17597 3 
17.2175 5.74281 5.74317 3 
18.6568 7.18026 7.17463 3 
20.091 5.74196 5.74005 3 
24.4017 4.30668 4.30507 3 
21.5303 4.30668 4.30508 3 
21.5256 7.17607 4.30238 3 
24.4064 7.17612 4.30234 3 
21.5299 4.3088 7.17429 3 
24.4021 4.30884 7.17428 3 
21.5293 7.17979 7.17257 3 
22.966 5.74418 5.7377 3 
24.4026 7.1798 7.17256 3 
27.2828 4.29969 4.31237 3 
27.2813 7.17881 4.3087 3 
27.2755 4.30729 7.17595 3 
25.841 5.74199 5.74003 3 
27.2751 7.1803 7.17456 3 
1.43923 10.0556 4.30789 3 
1.43468 10.0537 7.17547 3 
2.87241 8.61783 5.74179 3 
2.87142 11.4904 5.74064 3 
0.00106977 8.61753 5.74154 3 
4.30688 10.0538 4.30462 3 
7.17549 10.0531 4.3032 3 
4.30573 10.0537 7.17541 3 
5.74109 8.61735 5.73979 3 
7.17531 10.0533 7.1745 3 
5.74072 11.4894 5.73918 3 
10.0446 10.0531 4.30327 3 
8.61004 8.61718 5.73908 3 
10.0447 10.0533 7.17457 3 
11.479 8.61735 5.73989 3 
8.61004 11.4891 5.73863 3 
11.4794 11.4894 5.7393 3 
12.9132 10.0538 4.30478 3 
15.7808 10.0557 4.30807 3 
12.9143 10.0537 7.17553 3 
14.3476 8.61785 5.74192 3 
15.7854 10.0537 7.17563 3 
14.3487 11.4904 5.74084 3 
18.6538 10.0549 4.3068 3 
17.2189 8.61753 5.74167 3 
18.6579 10.0527 7.17392 3 
20.0924 8.61568 5.73826 3 
17.2205 11.4904 5.7405 3 
20.0942 11.4882 5.73792 3 
24.4024 10.0507 4.30173 3 
21.5295 10.0507 4.30179 3 
21.5303 10.0511 7.172 3 
22.966 8.61361 5.73563 3 
22.9659 11.4869 5.73664 3 
24.4017 10.0511 7.17191 3 
28.7115 11.4903 5.74027 3 
27.2782 10.0549 4.30668 3 
25.8396 8.61568 5.73819 3 
27.2741 10.0527 7.17377 3 
25.8378 11.4882 5.73781 3 
1.4369 12.9275 4.30558 3 
1.43365 15.7964 4.30286 3 
1.4337 12.9254 7.17456 3 
1.43254 15.7961 7.17353 3 
2.86998 14.3616 5.73932 3 
4.30617 12.9257 4.30375 3 
4.30498 15.7965 4.30296 3 
7.17537 12.9249 4.30284 3 
7.17514 15.7962 4.30263 3 
4.30422 15.7964 7.17384 3 
4.30508 12.9254 7.17463 3 
7.17513 12.9251 7.17404 3 
5.74022 14.3609 5.73859 3 
7.17487 15.7962 7.17361 3 
10.0447 12.9249 4.30291 3 
10.045 15.7962 4.30267 3 
10.0449 12.9251 7.17409 3 
8.61006 14.3606 5.73829 3 
10.0452 15.7963 7.17367 3 
11.4799 14.3609 5.73873 3 
12.9139 12.9257 4.30393 3 
15.7832 12.9275 4.30579 3 
12.9151 15.7965 4.30311 3 
15.7863 15.7964 4.30305 3 
12.915 12.9255 7.1748 3 
15.7863 12.9255 7.17479 3 
12.9158 15.7965 7.17403 3 
14.3501 14.3616 5.73954 3 
15.7875 15.7961 7.17377 3 
18.6566 12.9263 4.30432 3 
18.6588 15.795 4.30168 3 
18.6588 12.9243 7.17355 3 
17.2223 14.361 5.73889 3 
18.6594 15.7953 7.17298 3 
20.0948 14.3596 5.73743 3 
21.5302 12.924 4.30187 3 
21.5305 15.7939 4.30051 3 
24.4016 12.924 4.3018 3 
24.4013 15.7939 4.30045 3 
21.5305 12.9232 7.17253 3 
21.5306 15.7946 7.17243 3 
22.9659 14.359 5.73682 3 
24.4014 12.9232 7.17242 3 
24.4014 15.7946 7.17231 3 
28.7097 14.3609 5.73865 3 
27.2753 12.9263 4.30416 3 
27.273 15.795 4.30153 3 
27.2732 12.9243 7.17334 3 
25.8371 14.3595 5.73728 3 
27.2726 15.7952 7.17277 3 
1.43247 18.667 4.30261 3 
1.43174 18.6664 7.17294 3 
2.86834 17.2315 5.73812 3 
2.86767 20.1019 5.73804 3 
4.30419 18.6672 4.30297 3 
7.17492 18.667 4.30276 3 
4.30338 18.6667 7.17336 3 
5.73956 17.2316 5.73819 3 
7.17459 18.6668 7.17346 3 
5.73916 20.102 5.73828 3 
10.0453 18.6671 4.30282 3 
8.61007 17.2316 5.73814 3 
10.0455 18.6669 7.17356 3 
11.4805 17.2317 5.7383 3 
8.61006 20.1019 5.73834 3 
11.4809 20.1021 5.73846 3 
12.9159 18.6673 4.30314 3 
15.7875 18.667 4.30285 3 
12.9166 18.6669 7.17357 3 
14.3516 17.2316 5.73832 3 
15.7883 18.6664 7.1732 3 
14.3524 20.102 5.73829 3 
18.6594 18.6663 4.30195 3 
17.2236 17.2309 5.73762 3 
18.6597 18.6659 7.17266 3 
20.0951 17.2301 5.73677 3 
17.224 20.1016 5.73773 3 
20.0952 20.1014 5.73718 3 
21.5306 18.6658 4.30132 3 
24.4013 18.6658 4.30127 3 
21.5307 18.6656 7.17229 3 
22.9659 17.2298 5.73641 3 
22.966 20.1013 5.73692 3 
24.4014 18.6656 7.17224 3 
27.2725 18.6662 4.30177 3 
28.708 20.1016 5.73748 3 
28.7084 17.2308 5.7374 3 
25.8368 17.2301 5.73666 3 
27.2723 18.6659 7.17249 3 
25.8368 20.1013 5.73703 3 
1.43203 21.537 4.30249 3 
1.43282 24.4066 4.30343 3 
1.43164 21.5368 7.17328 3 
2.86786 22.9717 5.73855 3 
1.43216 24.4067 7.17434 3 
4.30363 21.5371 4.3029 3 
7.17473 21.537 4.30296 3 
7.17496 24.4066 4.30338 3 
4.30431 24.4064 4.30353 3 
4.3032 21.5369 7.17365 3 
7.17449 21.5369 7.17383 3 
5.73924 22.9717 5.73871 3 
7.17474 24.4066 7.17457 3 
4.30382 24.4065 7.17464 3 
10.0451 24.4066 4.30341 3 
10.0454 21.537 4.30302 3 
10.0455 21.5369 7.17396 3 
8.61005 22.9717 5.73876 3 
10.0452 24.4066 7.17466 3 
11.4808 22.9717 5.73888 3 
12.9164 21.5371 4.30307 3 
15.788 21.5371 4.30271 3 
12.9157 24.4064 4.30364 3 
15.7872 24.4066 4.3036 3 
12.9169 21.5369 7.17388 3 
15.7884 21.5368 7.17355 3 
14.3522 22.9718 5.73878 3 
15.7879 24.4068 7.17456 3 
12.9162 24.4065 7.17485 3 
18.6595 21.5369 4.30209 3 
18.6591 24.4071 4.30289 3 
18.6598 21.5367 7.17311 3 
17.2238 22.9719 5.73828 3 
20.0951 22.972 5.73781 3 
18.6595 24.4071 7.17412 3 
21.5306 21.5369 4.30158 3 
24.4014 21.5368 4.30151 3 
21.5305 24.4073 4.30238 3 
24.4016 24.4073 4.30234 3 
21.5307 21.5367 7.17287 3 
22.9661 22.9721 5.73757 3 
24.4016 24.4072 7.1738 3 
24.4015 21.5367 7.17278 3 
21.5306 24.4072 7.17385 3 
27.2725 21.5369 4.30187 3 
27.2729 24.4071 4.30277 3 
28.7082 22.9719 5.73805 3 
27.2723 21.5367 7.17292 3 
25.837 22.972 5.73765 3 
27.2727 24.407 7.17396 3 
2.87256 28.7096 5.74299 3 
1.43556 27.2749 4.30608 3 
1.43347 27.2764 7.17611 3 
2.86937 25.8409 5.74013 3 
5.7413 28.7117 5.74075 3 
4.30642 27.2755 4.30496 3 
7.17551 27.2767 4.30402 3 
4.30541 27.2761 7.17624 3 
5.74017 25.8412 5.73965 3 
7.17522 27.2769 7.17541 3 
11.4787 28.7117 5.74083 3 
10.0445 27.2767 4.30406 3 
8.61 25.8416 5.73942 3 
10.0447 27.2769 7.17549 3 
11.4798 25.8412 5.73978 3 
12.9136 27.2754 4.30507 3 
15.7845 27.2748 4.30621 3 
14.3475 28.7095 5.74312 3 
12.9145 27.2761 7.1764 3 
14.3506 25.8409 5.7403 3 
15.7866 27.2763 7.17626 3 
20.0943 28.7115 5.74128 3 
18.6581 27.2763 4.30498 3 
17.2212 28.7104 5.74232 3 
17.223 25.8415 5.73976 3 
18.6589 27.277 7.17565 3 
20.0948 25.842 5.73916 3 
22.966 28.7118 5.74094 3 
21.5303 27.277 4.30416 3 
24.4018 27.277 4.30414 3 
21.5305 27.2774 7.17534 3 
22.9661 25.8422 5.73889 3 
24.4017 27.2774 7.17527 3 
28.7109 28.7105 5.74224 3 
27.274 27.2763 4.30489 3 
28.7091 25.8416 5.7396 3 
25.8378 28.7115 5.74124 3 
25.8373 25.8421 5.73905 3 
27.2733 27.2771 7.17554 3 
2.86999 2.87239 8.61154 3 
2.86941 0.000362502 8.61147 3 
1.43291 1.4372 10.0458 3 
2.86831 2.8733 11.4804 3 
2.86789 0.00181923 11.4805 3 
5.74043 2.8727 8.61111 3 
4.30434 1.43699 10.046 3 
7.17486 1.43702 10.0457 3 
5.73945 2.87308 11.4804 3 
5.73917 0.00156617 11.4805 3 
5.74015 0.000690752 8.61108 3 
8.60989 2.87285 8.61069 3 
11.4795 2.87269 8.61114 3 
10.0449 1.43705 10.0458 3 
8.6099 2.87305 11.4804 3 
11.4804 2.87306 11.4804 3 
11.4807 0.0016041 11.4805 3 
11.4797 0.000700186 8.61117 3 
8.60991 0.000971513 8.61072 3 
8.6099 0.00154653 11.4805 3 
14.35 2.87229 8.61157 3 
12.9156 1.43696 10.0459 3 
15.7871 1.43712 10.0458 3 
14.3516 2.87321 11.4803 3 
14.3521 0.00184523 11.4805 3 
14.3506 0.000326899 8.61157 3 
17.2219 2.87228 8.61108 3 
20.0944 2.87329 8.61012 3 
20.0952 0.00287916 11.4804 3 
18.6591 1.43784 10.0454 3 
17.2234 2.87369 11.4803 3 
20.0949 2.87438 11.4802 3 
17.2229 0.000956481 8.61103 3 
20.0948 0.00159325 8.61058 3 
17.2238 0.00238657 11.4805 3 
22.9661 2.87378 8.60986 3 
22.9661 0.00185443 8.61042 3 
22.9661 0.00307219 11.4804 3 
21.5305 1.43836 10.0452 3 
22.9661 2.87471 11.4802 3 
24.4017 1.4384 10.0452 3 
28.7101 2.87238 8.61106 3 
28.7092 0.00104699 8.61093 3 
25.8376 2.87339 8.61012 3 
28.7083 0.00242335 11.4804 3 
28.7087 2.8738 11.4803 3 
27.273 1.43792 10.0454 3 
25.8372 2.87447 11.4802 3 
25.8374 0.0016481 8.61052 3 
25.8371 0.00292631 11.4804 3 
2.86991 5.74495 8.61101 3 
1.43319 4.30911 10.0455 3 
1.43312 7.18115 10.045 3 
2.86854 5.74512 11.48 3 
5.74043 5.7451 8.61073 3 
4.30453 7.1812 10.0453 3 
7.17496 4.309 10.0455 3 
4.30458 4.30902 10.0457 3 
7.175 7.18117 10.0451 3 
5.73963 5.74504 11.4801 3 
8.60996 5.74507 8.61035 3 
11.4796 5.745 8.61076 3 
10.0449 4.30897 10.0455 3 
10.0449 7.1811 10.0451 3 
8.60992 5.74498 11.48 3 
11.4803 5.74496 11.4801 3 
14.3501 5.7449 8.61106 3 
15.7868 4.309 10.0455 3 
12.9154 4.30896 10.0457 3 
12.9155 7.1811 10.0453 3 
15.7869 7.18109 10.045 3 
14.3515 5.74504 11.48 3 
17.2218 5.74468 8.61033 3 
20.0938 5.74482 8.60915 3 
18.6586 4.30939 10.045 3 
18.6586 7.18107 10.0445 3 
17.2231 5.74531 11.48 3 
20.0947 5.7458 11.4799 3 
22.966 5.7453 8.60864 3 
21.5303 4.31002 10.0446 3 
21.5302 7.18111 10.044 3 
22.966 5.74613 11.4799 3 
24.4018 7.18116 10.044 3 
24.4017 4.31008 10.0446 3 
28.7102 5.74476 8.6103 3 
28.7089 5.7454 11.48 3 
25.8382 5.7449 8.60914 3 
27.2734 4.30948 10.045 3 
27.2734 7.18114 10.0444 3 
25.8374 5.74589 11.48 3 
2.86954 8.61734 8.6104 3 
2.86907 11.4893 8.60981 3 
1.43288 10.053 10.0446 3 
2.86855 8.61706 11.4796 3 
2.8685 11.489 11.4792 3 
5.74027 8.61736 8.6102 3 
5.73998 11.4893 8.60969 3 
4.30433 10.0532 10.0448 3 
7.17495 10.0532 10.0447 3 
5.73967 8.61711 11.4796 3 
5.73962 11.4891 11.4792 3 
8.61001 8.61726 8.6099 3 
11.4798 8.61731 8.6103 3 
8.61 11.4892 8.60944 3 
11.48 11.4893 8.60976 3 
10.045 10.0532 10.0447 3 
8.60996 8.61711 11.4796 3 
11.4803 8.61704 11.4796 3 
8.61 11.4891 11.4792 3 
11.4803 11.4891 11.4792 3 
14.3504 8.61735 8.61053 3 
14.3509 11.4894 8.60997 3 
12.9156 10.0532 10.0448 3 
15.7871 10.053 10.0446 3 
14.3514 8.61702 11.4796 3 
14.3515 11.489 11.4792 3 
17.2223 8.61702 8.6097 3 
20.0942 8.61636 8.60838 3 
17.2229 11.4888 8.60926 3 
20.0948 11.4877 8.60818 3 
18.6589 10.0526 10.0441 3 
17.223 8.617 11.4796 3 
20.0946 8.617 11.4796 3 
17.2231 11.4887 11.4792 3 
20.0947 11.4882 11.4792 3 
22.966 8.61587 8.60765 3 
22.966 11.4872 8.60771 3 
21.5304 10.052 10.0436 3 
22.966 8.61703 11.4796 3 
22.9661 11.4879 11.4792 3 
24.4017 10.052 10.0435 3 
28.7092 11.4888 8.6091 3 
28.7098 8.61702 8.6096 3 
25.8378 8.6164 8.60829 3 
25.8372 11.4877 8.60803 3 
28.7089 11.4886 11.4792 3 
28.709 8.61705 11.4796 3 
27.2732 10.0526 10.044 3 
25.8374 8.61703 11.4796 3 
25.8373 11.4881 11.4792 3 
2.86842 14.3607 8.60912 3 
1.43254 12.9246 10.0441 3 
1.43206 15.7959 10.0436 3 
2.86825 14.3607 11.4787 3 
5.7396 14.3608 8.6091 3 
4.30362 15.7963 10.0438 3 
4.30403 12.925 10.0443 3 
7.17484 12.9251 10.0442 3 
7.17466 15.7964 10.0438 3 
5.73947 14.3609 11.4787 3 
8.61001 14.3608 8.60899 3 
11.4804 14.3609 8.60922 3 
10.0452 12.9251 10.0442 3 
10.0453 15.7965 10.0438 3 
8.61 14.3609 11.4788 3 
11.4805 14.3609 11.4788 3 
14.3516 14.3608 8.60931 3 
12.9159 12.925 10.0444 3 
15.7875 12.9247 10.0442 3 
12.9163 15.7964 10.0439 3 
15.7879 15.796 10.0438 3 
14.3517 14.3607 11.4788 3 
17.2235 14.3601 8.60882 3 
20.095 14.3593 8.6082 3 
18.6592 12.924 10.0438 3 
18.6595 15.7953 10.0436 3 
17.2234 14.3602 11.4788 3 
20.095 14.3595 11.4789 3 
22.966 14.3589 8.60792 3 
21.5305 12.9233 10.0435 3 
21.5306 15.7948 10.0434 3 
22.9661 14.3592 11.4788 3 
24.4015 15.7948 10.0433 3 
24.4015 12.9233 10.0434 3 
28.7085 14.36 8.60862 3 
25.837 14.3592 8.60805 3 
28.7086 14.3602 11.4787 3 
27.2728 12.9239 10.0437 3 
27.2725 15.7952 10.0434 3 
25.8372 14.3595 11.4788 3 
2.8677 17.2314 8.60852 3 
2.86723 20.1018 8.60842 3 
1.43162 18.6667 10.0434 3 
2.86782 17.2319 11.4784 3 
2.86729 20.1025 11.4787 3 
5.73873 20.102 8.60868 3 
5.73911 17.2317 8.60867 3 
4.30312 18.6671 10.0435 3 
7.1744 18.6672 10.0437 3 
5.73913 17.2321 11.4785 3 
5.73873 20.1027 11.4787 3 
8.61 17.2318 8.6087 3 
11.4809 17.2318 8.6088 3 
8.60995 20.1021 8.60881 3 
11.4812 20.1021 8.60883 3 
10.0455 18.6673 10.0437 3 
8.60995 17.2322 11.4785 3 
11.4807 17.2323 11.4785 3 
8.60987 20.1028 11.4788 3 
11.4811 20.1029 11.4788 3 
14.3523 17.2316 8.60874 3 
14.3528 20.1019 8.60869 3 
12.9168 18.6672 10.0437 3 
15.7884 18.6668 10.0436 3 
14.3521 17.2321 11.4785 3 
14.3527 20.1027 11.4788 3 
17.224 17.231 8.60837 3 
20.0952 17.2304 8.608 3 
17.2242 20.1016 8.60836 3 
20.0953 20.1014 8.60811 3 
18.6598 18.6663 10.0434 3 
17.2238 17.2315 11.4786 3 
20.0952 17.231 11.4786 3 
17.2242 20.1023 11.4788 3 
20.0953 20.1021 11.4788 3 
22.966 17.2302 8.6078 3 
22.9661 20.1013 8.60797 3 
21.5307 18.6661 10.0433 3 
22.9661 17.2307 11.4786 3 
22.9661 20.102 11.4788 3 
24.4015 18.666 10.0433 3 
28.7079 20.1016 8.60815 3 
28.7081 17.2309 8.60814 3 
28.708 20.1022 11.4787 3 
28.7082 17.2314 11.4785 3 
25.8368 17.2304 8.60785 3 
25.8368 20.1013 8.60798 3 
27.2724 18.6663 10.0433 3 
25.837 17.2309 11.4785 3 
25.8369 20.102 11.4787 3 
2.86738 22.972 8.60913 3 
1.43165 24.4075 10.0447 3 
1.43146 21.5372 10.0438 3 
2.86713 22.9727 11.4794 3 
5.73881 22.9719 8.60937 3 
4.30309 24.4073 10.0449 3 
7.17438 24.4072 10.045 3 
4.30284 21.5373 10.0439 3 
7.17426 21.5373 10.0441 3 
5.73853 22.9728 11.4794 3 
8.60993 22.972 8.60946 3 
11.4811 22.972 8.60952 3 
10.0454 24.4072 10.045 3 
10.0455 21.5374 10.0441 3 
8.60984 22.9728 11.4795 3 
11.4813 22.9728 11.4795 3 
14.3527 22.9721 8.60936 3 
15.7884 24.4076 10.0449 3 
12.9168 24.4074 10.045 3 
14.3529 22.9729 11.4795 3 
12.9171 21.5374 10.0441 3 
15.7886 21.5373 10.044 3 
17.2241 22.9721 8.60907 3 
20.0953 22.9721 8.60886 3 
18.6597 24.4077 10.0447 3 
18.6598 21.5371 10.0438 3 
17.2243 22.9729 11.4795 3 
20.0953 22.9729 11.4795 3 
22.9662 22.9722 8.60875 3 
21.5308 21.5371 10.0438 3 
21.5308 24.4078 10.0446 3 
24.4015 21.5371 10.0437 3 
22.9662 22.9729 11.4795 3 
24.4016 24.4078 10.0446 3 
28.708 22.9721 8.60889 3 
28.7079 22.9728 11.4794 3 
25.837 22.9721 8.60874 3 
27.2725 24.4077 10.0446 3 
27.2723 21.5371 10.0437 3 
25.8369 22.9728 11.4795 3 
2.8681 25.8419 8.61035 3 
1.43218 27.2781 10.0455 3 
2.86736 25.8431 11.4802 3 
5.7395 25.8418 8.61042 3 
7.17468 27.2777 10.0456 3 
5.73879 25.8428 11.4802 3 
4.3038 27.2776 10.0457 3 
8.60995 25.842 8.61029 3 
11.4804 25.8418 8.61058 3 
10.0451 27.2777 10.0456 3 
8.60991 25.8428 11.4802 3 
11.481 25.8429 11.4803 3 
14.3519 25.842 8.61053 3 
12.9161 27.2777 10.0458 3 
15.7879 27.2781 10.0456 3 
14.3526 25.8432 11.4803 3 
17.2237 25.8423 8.61019 3 
20.0951 25.8426 8.60994 3 
20.0953 25.8437 11.4802 3 
18.6595 27.2785 10.0454 3 
17.2241 25.8435 11.4802 3 
22.9662 25.8427 8.60985 3 
22.9662 25.8438 11.4802 3 
24.4016 27.2788 10.0453 3 
21.5307 27.2788 10.0453 3 
28.708 25.8434 11.4802 3 
28.7085 25.8423 8.61006 3 
25.8372 25.8426 8.60987 3 
25.837 25.8437 11.4802 3 
27.2727 27.2785 10.0453 3 
2.86844 2.87311 14.3498 3 
1.43213 1.43795 12.9153 3 
1.43259 1.43768 15.7853 3 
2.86772 0.00223536 14.3503 3 
4.30365 1.43746 12.9152 3 
7.17461 1.43733 12.9152 3 
5.73956 2.873 14.3499 3 
5.73906 0.00193635 14.3502 3 
4.30419 1.43726 15.785 3 
7.17477 1.43743 15.7853 3 
10.0452 1.43734 12.9152 3 
8.60989 2.87308 14.35 3 
11.4803 2.873 14.3498 3 
10.0451 1.43746 15.7852 3 
11.4808 0.00196613 14.3502 3 
8.6099 0.00193854 14.3503 3 
12.9162 1.43747 12.9152 3 
15.7879 1.43789 12.9153 3 
14.3515 2.87305 14.3498 3 
14.3522 0.00223527 14.3503 3 
12.9157 1.43728 15.785 3 
15.7874 1.43766 15.7852 3 
18.6595 1.43855 12.9155 3 
18.6594 1.43854 15.786 3 
17.2235 2.87375 14.3503 3 
20.0951 2.87462 14.3508 3 
17.224 0.00281749 14.3506 3 
20.0953 0.0033725 14.3509 3 
21.5307 1.43906 12.9156 3 
24.4015 1.43909 12.9156 3 
21.5307 1.43919 15.7865 3 
24.4015 1.43918 15.7865 3 
22.9661 2.875 14.351 3 
22.9662 0.00358625 14.351 3 
28.7086 2.87384 14.3503 3 
27.2726 1.43864 12.9155 3 
27.2727 1.43858 15.786 3 
25.837 2.87467 14.3509 3 
28.7081 0.00286919 14.3506 3 
25.8369 0.00339859 14.351 3 
1.43256 4.30934 12.915 3 
1.43289 7.18104 12.9146 3 
1.43374 4.30847 15.7844 3 
1.43467 7.18031 15.7837 3 
2.86909 5.74467 14.3493 3 
4.30406 4.30899 12.9148 3 
4.30434 7.18091 12.9144 3 
7.17477 4.30894 12.9149 3 
7.17495 7.18092 12.9146 3 
5.73994 5.74472 14.3494 3 
4.30508 4.30842 15.7843 3 
4.30569 7.18039 15.7837 3 
7.17505 4.30882 15.785 3 
7.17524 7.18072 15.7846 3 
10.045 4.30892 12.9149 3 
10.045 7.18089 12.9145 3 
8.60993 5.74481 14.3497 3 
11.4799 5.74468 14.3494 3 
10.0448 4.30883 15.7849 3 
10.0446 7.18071 15.7846 3 
15.7874 4.3092 12.915 3 
12.9159 4.30893 12.9148 3 
12.9156 7.18085 12.9144 3 
15.7871 7.18098 12.9146 3 
14.3509 5.7446 14.3492 3 
12.9148 4.30842 15.7842 3 
15.7863 4.3084 15.7843 3 
12.9143 7.18033 15.7836 3 
15.7853 7.18024 15.7835 3 
18.6592 4.30996 12.9153 3 
18.6589 7.18141 12.9151 3 
20.0948 5.7462 14.3509 3 
17.2228 5.74511 14.3499 3 
18.6588 4.30955 15.7855 3 
18.6579 7.18119 15.7852 3 
21.5305 4.3106 12.9156 3 
24.4015 4.31067 12.9156 3 
21.5304 7.18198 12.9156 3 
24.4017 7.18202 12.9156 3 
22.966 5.74677 14.3514 3 
21.5305 4.31065 15.7865 3 
24.4015 4.31068 15.7865 3 
21.5303 7.18284 15.7871 3 
24.4017 7.18289 15.7872 3 
27.2728 4.31005 12.9154 3 
27.2732 7.1815 12.9152 3 
28.7092 5.7452 14.35 3 
27.2732 4.3096 15.7856 3 
27.2741 7.1813 15.7853 3 
25.8372 5.74629 14.351 3 
1.43312 10.053 12.9142 3 
2.86988 11.4892 14.3482 3 
1.43544 10.0531 15.7829 3 
2.86954 8.61677 14.3488 3 
4.3045 10.053 12.914 3 
7.175 10.053 12.9142 3 
5.7404 11.4891 14.3486 3 
4.30618 10.0529 15.7831 3 
7.17541 10.053 15.7842 3 
5.74024 8.61682 14.349 3 
11.4797 8.61676 14.349 3 
10.0449 10.053 12.9141 3 
10.0445 10.0529 15.7842 3 
11.4796 11.4891 14.3485 3 
8.60996 8.61688 14.3493 3 
8.60999 11.4891 14.3489 3 
12.9155 10.053 12.914 3 
15.7869 10.0529 12.9142 3 
14.3504 8.61672 14.3487 3 
12.9138 10.0528 15.7831 3 
15.7846 10.0531 15.7828 3 
14.3502 11.4892 14.3482 3 
18.6586 10.0529 12.9148 3 
17.2219 11.4893 14.3489 3 
18.6569 10.0537 15.7846 3 
17.2222 8.61701 14.3495 3 
20.0942 8.61763 14.3508 3 
20.0939 11.4892 14.3501 3 
21.5302 10.0529 12.9152 3 
24.4019 10.0529 12.9153 3 
22.966 8.61818 14.3515 3 
21.5293 10.0542 15.7866 3 
24.4027 10.0542 15.7867 3 
22.966 11.4887 14.3506 3 
28.7102 11.4894 14.349 3 
27.2734 10.053 12.9148 3 
25.8382 11.4892 14.3501 3 
27.2752 10.0538 15.7847 3 
25.8378 8.61769 14.3509 3 
28.7098 8.61706 14.3496 3 
2.86987 14.3617 14.3477 3 
1.43314 12.925 12.9137 3 
1.43279 15.7968 12.9133 3 
1.43597 12.9265 15.782 3 
1.43548 15.7995 15.7815 3 
4.30427 15.7969 12.9132 3 
4.30452 12.9251 12.9135 3 
7.17501 12.9251 12.9137 3 
7.17492 15.7969 12.9134 3 
4.30649 12.9258 15.7826 3 
4.30636 15.7984 15.7823 3 
7.17555 12.9253 15.7838 3 
7.1755 15.7975 15.7836 3 
5.74041 14.3614 14.3482 3 
10.045 12.9251 12.9137 3 
10.0451 15.7969 12.9134 3 
8.61001 14.3612 14.3486 3 
10.0445 12.9253 15.7838 3 
10.0445 15.7976 15.7835 3 
11.4796 14.3614 14.3481 3 
12.9155 12.9251 12.9135 3 
15.7869 12.925 12.9137 3 
12.9157 15.797 12.9132 3 
15.7872 15.7968 12.9133 3 
12.9135 12.9257 15.7825 3 
15.7841 12.9265 15.7819 3 
12.9136 15.7985 15.7821 3 
15.7845 15.7995 15.7814 3 
14.3501 14.3617 14.3476 3 
18.6587 12.9246 12.9142 3 
18.6592 15.7961 12.9137 3 
17.222 14.3617 14.3481 3 
18.6566 12.9268 15.7833 3 
18.6582 15.7982 15.7829 3 
20.0945 14.3607 14.3491 3 
21.5303 12.9239 12.9145 3 
21.5305 15.7955 12.9139 3 
24.4018 12.924 12.9145 3 
24.4016 15.7955 12.9139 3 
21.53 12.9252 15.785 3 
21.5303 15.7973 15.7835 3 
24.4018 15.7973 15.7836 3 
24.4021 12.9252 15.785 3 
22.9661 14.3602 14.3494 3 
28.7101 14.3617 14.3482 3 
25.8376 14.3606 14.3491 3 
27.2734 12.9245 12.9142 3 
27.273 15.796 12.9137 3 
27.2755 12.9268 15.7833 3 
27.2739 15.7981 15.7829 3 
1.43209 18.6677 12.9134 3 
2.86928 17.2335 14.3477 3 
2.86801 20.1038 14.3486 3 
1.43336 18.6695 15.783 3 
4.30374 18.668 12.9133 3 
7.17463 18.668 12.9134 3 
5.74011 17.2331 14.3481 3 
4.30532 18.6697 15.7829 3 
7.17516 18.6689 15.7837 3 
5.73938 20.1039 14.3486 3 
11.4798 17.2332 14.348 3 
11.4804 20.104 14.3485 3 
10.0452 18.6681 12.9134 3 
8.60985 20.1037 14.3488 3 
10.0447 18.669 15.7837 3 
8.60995 17.2329 14.3484 3 
14.352 20.1039 14.3486 3 
14.3507 17.2336 14.3476 3 
12.9162 18.6682 12.9133 3 
15.7879 18.6678 12.9134 3 
12.9146 18.6699 15.7827 3 
15.7867 18.6696 15.7829 3 
18.6595 18.6673 12.9137 3 
20.0951 20.1032 14.3492 3 
20.0949 17.2323 14.3486 3 
18.659 18.6689 15.7835 3 
17.2238 20.1035 14.3489 3 
17.223 17.233 14.3481 3 
21.5307 18.667 12.9138 3 
24.4016 18.667 12.9138 3 
22.9661 17.232 14.3487 3 
22.9661 20.1031 14.3492 3 
21.5305 18.6685 15.7839 3 
24.4017 18.6685 15.7839 3 
28.709 17.2329 14.3482 3 
28.7084 20.1034 14.3489 3 
27.2727 18.6673 12.9136 3 
25.8371 20.1032 14.3491 3 
25.8373 17.2322 14.3486 3 
27.2731 18.6688 15.7836 3 
1.4316 21.5381 12.9141 3 
1.43148 24.4084 12.915 3 
2.8673 22.9736 14.3497 3 
1.43207 21.539 15.7847 3 
1.43162 24.4089 15.7856 3 
4.30283 24.4083 12.9149 3 
4.30303 21.5382 12.914 3 
7.17431 21.5383 12.914 3 
7.17421 24.4082 12.9148 3 
5.73869 22.9736 14.3495 3 
4.30369 21.5392 15.7844 3 
7.17463 21.5391 15.7844 3 
7.17436 24.4087 15.7851 3 
4.30309 24.4087 15.7852 3 
11.4811 22.9737 14.3495 3 
10.0455 24.4082 12.9148 3 
10.0454 21.5384 12.914 3 
10.0452 21.5391 15.7844 3 
8.60986 22.9736 14.3495 3 
10.0454 24.4087 15.785 3 
12.9171 24.4083 12.9149 3 
15.7886 24.4085 12.915 3 
15.7885 21.5382 12.9142 3 
12.9169 21.5384 12.914 3 
14.3527 22.9737 14.3497 3 
12.9162 21.5393 15.7842 3 
15.788 21.5391 15.7846 3 
15.7884 24.409 15.7855 3 
12.9168 24.4088 15.7851 3 
18.6599 24.4087 12.9151 3 
18.6598 21.5381 12.9143 3 
17.2242 22.9737 14.3499 3 
18.6595 21.5388 15.785 3 
18.6598 24.4091 15.7859 3 
20.0953 22.9737 14.3502 3 
24.4016 24.4087 12.9152 3 
21.5308 24.4087 12.9152 3 
24.4015 21.5379 12.9144 3 
21.5307 21.538 12.9144 3 
21.5306 21.5387 15.7852 3 
24.4016 21.5387 15.7853 3 
21.5308 24.4092 15.7861 3 
24.4015 24.4091 15.7862 3 
22.9662 22.9736 14.3502 3 
27.2724 24.4086 12.9151 3 
27.2724 21.538 12.9143 3 
25.837 22.9736 14.3502 3 
28.708 22.9736 14.35 3 
27.2726 21.5387 15.785 3 
27.2724 24.409 15.7859 3 
1.4317 27.279 12.9154 3 
1.43179 27.2793 15.7859 3 
2.86726 25.8438 14.3504 3 
5.73867 25.8435 14.3502 3 
4.30315 27.2786 12.9153 3 
7.17438 27.2784 12.9153 3 
4.30334 27.2789 15.7855 3 
7.17445 27.2788 15.7854 3 
10.0454 27.2784 12.9153 3 
8.60988 25.8435 14.3501 3 
11.4811 25.8436 14.3501 3 
10.0454 27.2788 15.7854 3 
12.9167 27.2786 12.9153 3 
15.7883 27.279 12.9154 3 
14.3527 25.8438 14.3503 3 
12.9165 27.2789 15.7854 3 
15.7882 27.2793 15.7857 3 
18.6598 27.2794 12.9155 3 
20.0954 25.8444 14.3508 3 
17.2242 25.8442 14.3506 3 
18.6598 27.2799 15.7862 3 
21.5308 27.2797 12.9156 3 
24.4016 27.2797 12.9156 3 
21.5308 27.2802 15.7866 3 
24.4015 27.2802 15.7866 3 