ITEM: TIMESTEP
49043
ITEM: NUMBER OF ATOMS
18
ITEM: BOX BOUNDS pp pp pp
0.0000000000000000e+00 2.8712000000000000e+01
0.0000000000000000e+00 2.8712000000000000e+01
0.0000000000000000e+00 2.8712000000000000e+01
ITEM: ATOMS x y z c_cna 
19.9449 5.34433 0.144704 5 
18.7107 7.182 1.37891 5 
21.5264 7.18201 1.5329 5 
19.9449 9.01955 0.144547 5 
21.5356 7.18186 24.2961 5 
24.3514 7.18192 24.4502 5 
18.5566 7.1819 27.2752 5 
20.1322 5.7595 25.8718 5 
22.9298 5.75958 28.6693 5 
21.531 4.34787 27.2706 5 
20.782 7.18197 28.0196 5 
23.117 5.34441 25.6845 5 
22.28 7.18189 26.5214 5 
24.5054 7.18191 27.2659 5 
20.1322 8.60427 25.8717 5 
22.9298 8.60434 28.6692 5 
23.117 9.01947 25.6845 5 
21.531 10.0161 27.2704 5 
ITEM: TIMESTEP
49044
ITEM: NUMBER OF ATOMS
18
ITEM: BOX BOUNDS pp pp pp
0.0000000000000000e+00 2.8712000000000000e+01
0.0000000000000000e+00 2.8712000000000000e+01
0.0000000000000000e+00 2.8712000000000000e+01
ITEM: ATOMS x y z c_cna 
19.9449 5.34433 0.144704 5 
18.7107 7.182 1.37891 5 
21.5264 7.18201 1.5329 5 
19.9449 9.01955 0.144547 5 
21.5356 7.18186 24.2961 5 
24.3514 7.18192 24.4502 5 
18.5566 7.1819 27.2752 5 
20.1322 5.7595 25.8718 5 
22.9298 5.75958 28.6693 5 
21.531 4.34787 27.2706 5 
20.782 7.18197 28.0196 5 
23.117 5.34441 25.6845 5 
22.28 7.18189 26.5214 5 
24.5054 7.18191 27.2659 5 
20.1322 8.60427 25.8717 5 
22.9298 8.60434 28.6692 5 
23.117 9.01947 25.6845 5 
21.531 10.0161 27.2704 5 
