ITEM: TIMESTEP
49000
ITEM: NUMBER OF ATOMS
2001
ITEM: BOX BOUNDS pp pp pp
0.0000000000000000e+00 2.8712000000000000e+01
0.0000000000000000e+00 2.8712000000000000e+01
0.0000000000000000e+00 2.8712000000000000e+01
ITEM: ATOMS x y z 
1.35812 1.52117 1.36588 
2.60082 3.01965 2.97555 
2.77036 0.0929898 2.76048 
0.216533 2.89192 0.0396038 
2.73652 0.108765 0.00260824 
4.20975 1.40473 1.45119 
7.27857 1.26864 1.47664 
5.79429 2.66892 2.86098 
5.94475 2.73904 0.168455 
10.0395 1.44165 1.43517 
8.58126 2.72621 2.90689 
11.5199 2.68339 2.96997 
11.5451 2.77575 0.116207 
11.4352 0.08224 2.96977 
12.8804 1.26526 1.66488 
15.7787 1.23289 1.50548 
14.2285 2.93907 2.8863 
14.3917 0.0831879 2.84377 
18.5858 1.43464 1.75808 
16.9463 2.76896 2.94816 
19.9815 2.90933 2.79738 
20.048 0.0333557 3.06366 
17.1583 2.78403 0.0447753 
21.449 1.39267 1.5051 
22.9503 2.8691 2.91905 
24.3736 1.57086 1.3265 
22.9425 0.182426 2.94897 
23.0135 0.117992 0.00665668 
28.43 3.00325 2.96593 
27.2529 1.56758 1.42377 
25.8609 2.89529 2.84021 
25.923 0.128547 0.0120881 
25.6495 0.00227764 2.82504 
1.37723 4.33923 1.54577 
1.50433 7.1723 1.67666 
2.84118 5.86483 2.77171 
2.8101 5.83454 0.115583 
4.33553 4.29689 1.40005 
7.30727 4.30572 1.41628 
4.45912 7.325 1.32116 
7.0845 7.23516 1.29764 
5.87017 5.82428 2.68207 
10.1369 4.24157 1.51372 
10.1111 7.13903 1.48501 
8.66055 5.50818 2.81591 
11.5559 5.79588 2.91756 
8.70623 5.74477 0.160327 
11.4587 5.73867 0.0151862 
15.5909 4.20889 1.42635 
12.7389 4.17502 1.44833 
12.9393 7.17517 1.47581 
15.6558 7.34528 1.60425 
14.269 5.78105 2.72548 
14.3697 5.66871 0.13417 
18.3926 4.20452 1.64005 
19.9247 5.44988 0.405186 
18.5181 7.38205 1.6563 
17.1979 5.61677 2.88354 
20.0485 5.68217 2.71189 
17.1979 5.60778 0.176 
24.3007 4.18197 1.21249 
21.5199 4.24007 1.43348 
21.549 7.41034 1.63755 
22.9125 5.67517 2.73445 
24.3258 7.16204 1.32075 
22.9363 5.60154 0.0281516 
27.2723 4.21464 1.2773 
28.4169 5.77541 3.07135 
27.3456 7.18923 1.50154 
25.8074 5.85831 2.8944 
26.0187 5.80487 0.0241061 
1.67761 10.0519 1.61101 
3.04323 8.63881 3.00307 
2.88735 11.3062 2.97519 
0.136766 11.4848 0.0783402 
2.82649 8.58214 0.26174 
0.0721543 11.5411 2.82652 
0.0498949 8.71085 2.73478 
2.90238 11.6359 0.178295 
4.43259 9.94156 1.39675 
7.30307 10.0382 1.17387 
5.92554 8.73232 2.80155 
5.91822 11.4185 2.88427 
5.80526 11.4786 0.0202971 
10.163 10.0013 1.43415 
8.63697 8.55874 2.91859 
11.4199 8.65135 2.81017 
8.76724 11.6044 2.8685 
11.6162 11.5932 2.66284 
11.5616 8.53103 0.121155 
8.84201 8.58112 0.000618332 
12.9183 10.1337 1.31081 
15.7269 10.1157 1.33115 
14.3461 8.8689 2.89369 
14.3823 11.7 2.95118 
14.537 8.62262 0.049613 
18.5167 10.1622 1.58727 
17.112 8.69148 2.88541 
20.1987 8.52325 3.09251 
17.1864 11.5003 3.05093 
20.1021 11.5105 3.06727 
17.2818 8.57441 0.0167845 
17.1713 11.5556 0.0707589 
19.8985 8.96971 0.307466 
21.4238 10.2662 1.56197 
23.0452 8.63037 2.78176 
23.0333 11.5211 2.72761 
24.4378 9.98593 1.41772 
22.8622 8.75525 0.0156107 
27.347 10.1743 1.32488 
25.8728 8.65494 2.91364 
25.9955 11.4291 2.82233 
25.9535 11.6205 0.158019 
25.7915 8.60687 0.040329 
0.0637367 14.2035 0.0996239 
1.61919 13.0777 1.60126 
1.39747 15.7602 1.61031 
2.81154 14.4315 2.97587 
3.01955 14.2717 0.0571059 
4.24155 15.8659 1.43968 
4.36765 12.9007 1.6591 
7.26962 12.9054 1.45819 
7.18588 15.6753 1.48953 
5.68861 14.2166 2.95535 
5.71548 14.2744 0.191446 
10.1658 13.0263 1.47178 
10.2377 15.9401 1.44893 
8.73936 14.4393 2.89557 
11.6003 14.4157 2.61153 
13.0276 12.9666 1.25392 
15.7723 13.2177 1.40017 
13.0045 15.9123 1.36878 
15.9291 15.8573 1.58881 
14.3456 14.5538 2.64418 
18.7595 12.9254 1.46588 
18.6266 15.8765 1.45038 
17.1648 14.2446 2.74181 
20.0957 14.4365 2.75766 
17.3358 14.3488 0.0118832 
19.8972 14.3308 0.000231204 
21.4881 12.896 1.2471 
21.564 15.8592 1.5598 
23.0181 14.307 2.9436 
24.4592 12.8499 1.36569 
24.4015 15.6039 1.55218 
22.8708 14.3206 0.0274272 
28.648 14.1164 3.12935 
27.378 13.0459 1.69216 
27.2637 15.8377 1.30443 
25.8677 14.4597 2.77419 
25.8724 14.1355 0.0799016 
1.3098 18.6628 1.44357 
2.85726 17.0737 2.88745 
2.88966 20.0305 2.90886 
0.0515805 17.0595 2.9493 
2.83656 20.0413 0.198123 
2.81229 17.207 0.00963924 
4.24298 18.5895 1.65524 
7.29851 18.6987 1.41107 
5.82993 17.1967 2.93138 
5.64618 20.1518 2.84089 
10.163 18.8702 1.36683 
8.65628 17.1228 2.9569 
11.7767 17.3758 2.82908 
8.6936 20.1082 2.80603 
11.5837 20.1812 2.91827 
11.621 17.3663 0.0269474 
8.54279 20.3023 0.0693865 
13.0045 18.7889 1.36718 
15.837 18.729 1.34595 
14.5263 17.334 2.94583 
14.5876 20.1616 2.77026 
18.5408 18.7705 1.45859 
17.3334 17.3488 2.92665 
19.9808 17.2322 2.84678 
17.3851 20.3357 2.69067 
20.1103 20.0274 2.88009 
19.9981 17.437 0.116568 
21.6385 18.746 1.53611 
24.5117 18.6617 1.53945 
22.9847 17.1919 2.79685 
23.0155 20.1915 2.79944 
22.9941 17.1719 0.135241 
25.9378 20.24 0.0228032 
28.6335 20.1195 2.75923 
27.2408 18.5584 1.3983 
25.8249 17.2355 3.04659 
25.6759 20.084 2.94697 
25.7141 17.0928 0.140084 
1.53646 21.4821 1.5566 
2.83406 23.0303 2.8639 
1.49775 24.3646 1.2954 
0.179423 23.0217 2.68016 
4.07111 24.3845 1.40496 
4.19187 21.4165 1.54283 
7.13502 21.6591 1.49342 
5.73912 22.9621 2.71362 
7.28443 24.3648 1.29874 
10.0901 21.2991 1.40975 
8.76345 23.0152 2.75155 
11.4409 22.995 2.8175 
10.0939 24.4284 1.29587 
13.058 21.5853 1.3701 
15.8302 21.4984 1.21732 
15.8654 21.7205 4.03536 
14.3487 23.0207 2.71183 
12.9129 24.2874 1.33232 
15.8173 24.3111 1.36616 
18.8119 21.5294 1.40619 
17.3117 23.0808 2.76307 
20.1109 22.9732 2.86896 
18.6703 24.2621 1.39099 
21.5911 21.5099 1.54098 
24.5203 21.4848 1.25288 
23.052 22.8668 2.98718 
24.5251 24.2342 1.37852 
21.5398 24.3706 1.37366 
27.3499 21.5061 1.38791 
25.8357 22.7916 2.84171 
27.3233 24.3964 1.3838 
25.941 23.036 0.0462453 
2.76031 25.9351 0.0100446 
1.3492 27.284 1.58341 
2.94951 25.7814 2.84387 
0.118127 25.7715 2.76729 
0.0574383 25.92 0.066914 
5.67584 28.6867 2.8807 
4.18649 27.3493 1.45155 
7.11227 27.195 1.33816 
5.66451 25.4546 2.73804 
5.81608 28.6417 0.154771 
8.68112 28.6443 2.87979 
11.6138 28.5732 0.0699833 
10.1748 27.2528 1.57057 
8.51857 25.7987 2.88748 
11.4394 25.8201 2.87559 
12.9797 27.2009 1.71203 
16.0432 27.161 1.29125 
14.3665 25.6631 2.79651 
14.3886 25.7754 0.134675 
14.307 28.591 0.0812265 
17.217 28.584 2.92717 
20.2548 25.905 0.00104344 
18.7886 27.4384 1.49994 
17.2633 25.854 2.91925 
20.1447 25.8874 2.88973 
21.4575 27.3957 1.56106 
23.0202 25.8884 2.82563 
24.3505 27.2145 1.41187 
23.0143 25.7795 0.131079 
28.5245 28.6945 2.85737 
27.2332 27.0602 1.47361 
25.7805 25.8744 2.71697 
0.991385 1.30793 4.28875 
1.38064 1.29813 7.29863 
2.66197 2.71938 5.74612 
4.2437 1.39585 4.32085 
7.03159 1.38098 4.44415 
4.33505 1.14243 7.12329 
6.97494 1.44224 7.202 
5.63986 2.82762 5.75658 
9.94963 1.33368 4.47683 
9.95835 1.31172 7.19004 
8.54356 2.74125 5.94105 
11.4711 2.83818 5.9189 
8.44392 0.147576 5.85778 
12.9397 1.48975 4.49273 
15.6554 1.35423 4.3311 
12.8279 1.42958 7.09421 
15.8145 1.37635 7.2149 
14.3712 2.88419 5.78904 
18.6394 1.43443 4.38999 
18.8025 1.37722 7.27563 
16.9032 2.99613 5.69628 
19.9675 2.69999 5.92011 
19.9889 0.0318891 5.70713 
17.1933 0.100221 5.78855 
21.3174 1.53067 4.34152 
24.3486 1.40931 4.40399 
21.4261 1.42396 7.22524 
24.5359 1.26227 7.2396 
23.0162 2.7536 5.78539 
23.0282 0.0142383 5.75459 
27.2574 1.38272 4.4177 
28.6452 2.76738 5.82485 
27.341 1.47652 7.44191 
25.9553 2.91258 5.71902 
25.8953 0.122592 5.5972 
1.37228 4.46769 4.35209 
1.43885 7.24003 4.33671 
1.49929 4.35519 7.12523 
1.35895 7.21342 7.08746 
2.85101 5.72426 5.68226 
4.374 7.02965 4.26553 
7.17076 4.31566 4.31925 
4.18553 4.23312 4.3468 
7.35733 7.01046 4.1766 
4.45447 7.13802 6.91531 
4.33288 4.42446 6.99389 
7.26138 4.30991 6.93676 
5.7913 5.69221 5.60645 
7.1361 7.03727 7.04777 
10.0148 4.16053 4.51167 
10.0905 7.16464 4.2052 
9.94353 4.19354 7.3649 
8.63983 5.72851 5.64344 
9.9354 7.01267 7.1093 
11.4267 5.68367 5.61746 
12.7754 4.23547 4.32475 
15.4964 4.33819 4.37643 
12.9869 7.22459 4.39437 
15.6506 7.37568 4.31098 
12.9082 4.30563 7.21703 
15.8879 4.44089 7.1863 
12.7422 7.18488 7.23245 
14.2342 5.78265 5.804 
15.5788 7.25779 7.28705 
18.5571 4.13433 4.34984 
18.6849 6.99139 4.12048 
18.4467 4.21271 6.98493 
17.0279 6.06536 5.57158 
18.5474 7.17975 7.1152 
19.9685 5.72773 5.60637 
24.3743 4.33825 4.50283 
21.6138 4.31983 4.38623 
21.6291 7.09874 4.29679 
24.2911 7.20392 4.35788 
21.5375 4.19241 7.22005 
24.4689 4.40443 7.19154 
21.4906 7.21772 7.07981 
22.9059 5.78418 5.77161 
24.4468 7.16078 7.29115 
27.0936 4.29559 4.23446 
27.1811 7.43888 4.31324 
28.5736 5.7553 5.72685 
27.2974 4.53522 7.18612 
25.7937 5.91634 5.74979 
27.1372 7.40724 7.14958 
1.37137 9.97129 4.36846 
1.4407 10.045 7.31765 
2.94099 8.78717 5.74728 
2.72951 11.4197 5.79807 
0.00162683 11.5825 5.70633 
4.39657 10.1582 4.27998 
7.34355 10.0952 4.11231 
4.2819 10.2049 7.25916 
5.85947 8.75359 5.68392 
7.24417 10.034 7.05191 
5.88319 11.6538 5.53795 
10.0298 9.98836 4.18038 
8.71545 8.73886 5.61985 
10.0358 10.1472 7.21756 
11.4752 8.77726 5.72179 
8.87954 11.4177 5.66135 
11.388 11.5156 5.70438 
12.81 10.1972 4.13978 
15.4899 10.1453 4.41193 
12.7422 10.1448 7.3125 
14.1664 8.72362 5.89925 
15.5922 10.0621 7.45573 
14.2363 11.6049 5.93223 
18.8153 9.96674 4.41887 
17.3197 8.68071 5.82185 
18.8656 10.0829 7.22948 
20.0743 8.44392 5.82152 
17.1835 11.2266 5.68951 
20.1744 11.4544 5.70365 
21.6954 10.0269 4.33937 
24.3189 10.3021 4.17151 
21.7461 9.9938 7.29339 
23.0342 8.77103 5.67089 
22.9126 11.6882 5.78612 
24.4475 10.3182 7.18675 
27.2937 10.1274 4.29575 
28.692 8.64686 5.73148 
25.7387 8.80086 5.66607 
27.2773 10.1604 7.23151 
25.8938 11.587 5.732 
1.57477 12.8259 4.42822 
1.3924 15.785 4.54685 
1.31377 13.0203 7.17103 
1.19752 15.7439 7.20326 
2.91131 14.3522 5.86595 
4.11873 12.9338 4.25344 
4.13842 15.8472 4.35 
7.36116 13.1206 4.34053 
7.20659 15.6127 4.33109 
4.35717 15.6917 7.22838 
4.29112 12.8106 7.0547 
7.14967 13.1577 6.98447 
5.67566 14.3105 5.58145 
7.37868 15.6968 7.20306 
10.2823 12.9597 4.15102 
10.4119 15.8392 4.2339 
10.0976 13.0314 7.10299 
8.96346 14.4061 5.55718 
10.1034 15.6931 7.1397 
11.7036 14.4872 5.78399 
12.9359 12.9866 4.11696 
15.7966 13.0041 4.62166 
13.0192 15.843 4.34257 
15.8563 15.9478 4.40315 
12.8394 13.1076 7.30727 
15.5781 12.9475 7.22591 
12.9461 15.9282 7.08748 
14.2106 14.4196 5.62493 
15.8817 15.8688 7.13642 
18.6586 12.9151 4.29492 
18.5795 15.7967 4.27885 
18.5908 12.9757 7.1728 
17.154 14.4329 5.88069 
18.5882 15.8406 7.23358 
20.0533 14.2412 5.68281 
21.5862 12.9873 4.32311 
21.6275 15.6197 4.27668 
24.4836 12.9945 4.28431 
24.48 15.577 4.45185 
21.5979 12.9242 7.15655 
21.6563 15.6378 7.07633 
22.9638 14.2648 5.83925 
24.5405 12.7688 7.31963 
24.408 15.6394 7.27409 
27.1094 12.9413 4.3636 
27.2697 15.7932 4.4113 
28.7041 14.3466 5.80517 
27.3069 12.8929 7.35834 
25.8207 14.2554 5.78907 
27.3468 15.8407 7.37903 
1.36381 18.6309 4.14898 
1.37759 18.3937 7.35659 
2.85658 17.1211 5.77297 
2.81084 19.8398 5.93833 
0.04737 20.0271 5.70627 
4.1372 18.5627 4.33951 
7.27913 18.8234 4.12124 
4.36417 18.5492 7.20326 
5.91203 17.2191 5.69894 
7.21904 18.5228 7.0555 
5.71978 20.1368 5.66181 
10.1527 18.7932 4.26137 
8.78388 17.2247 5.59012 
10.3283 18.676 7.19792 
11.5689 17.2718 5.77595 
8.49451 20.131 5.8777 
11.4235 20.2033 5.78908 
13.1047 18.7424 4.20736 
15.9175 18.714 4.32296 
13.0021 18.7309 7.03527 
14.2691 17.3143 5.67555 
15.8233 18.7105 7.04612 
14.4743 20.2988 5.61717 
18.7192 18.6493 4.41718 
17.1538 17.2567 5.78442 
18.6995 18.7221 6.99583 
20.2303 17.1407 5.48651 
17.2681 20.2506 5.63672 
20.1352 20.1065 5.68049 
21.6495 18.6013 4.33071 
24.4071 18.7805 4.31425 
21.3131 18.5759 7.10706 
23.118 17.2236 5.92144 
23.0175 20.2214 5.98592 
24.3576 18.6254 7.17397 
27.3895 18.7315 4.26153 
28.668 17.2385 5.72999 
25.8892 17.1253 5.72653 
27.3759 18.5671 7.2148 
26.0522 20.014 5.79743 
1.38469 21.4448 4.33101 
1.56564 24.4261 4.26616 
1.56109 21.4972 7.11239 
2.81926 22.8243 5.67685 
1.67104 24.4296 7.17634 
0.0108469 22.9903 5.54385 
4.31056 21.4455 4.27244 
7.13244 21.5789 4.12608 
7.13738 24.4261 4.28151 
4.12904 24.4284 4.35349 
4.22639 21.5758 7.20763 
7.25178 21.5367 7.32921 
5.69396 22.8856 5.69798 
7.26003 24.1997 7.1149 
4.31131 24.2272 7.16714 
10.0004 21.6123 4.50457 
10.0288 24.4054 4.31239 
9.92573 21.4906 7.39645 
8.71398 22.9848 5.71665 
9.98206 24.2414 7.22944 
11.5243 22.9784 5.65601 
13.014 21.473 4.31265 
12.8629 24.3131 4.29057 
15.6993 24.3803 4.27188 
12.9373 21.5698 7.06992 
15.8748 21.3649 7.36427 
14.5188 22.7979 5.72293 
15.7801 24.5997 7.0411 
12.9849 24.3519 7.24524 
18.6923 21.5867 4.22846 
18.6259 24.4854 4.19206 
18.7244 21.4696 7.2319 
17.2145 22.9066 5.68885 
20.122 22.9905 5.82085 
18.7502 24.3798 7.10775 
21.6341 21.5382 4.48231 
24.3762 21.4926 4.40577 
21.4798 24.4795 4.16807 
24.5682 24.2793 4.18954 
21.5209 21.7471 7.28878 
22.9318 23.086 5.70446 
24.5799 24.5413 7.08112 
24.3866 21.4746 7.33371 
21.6874 24.4201 7.1964 
27.231 21.4798 4.26906 
27.121 24.3302 4.37821 
27.3416 21.5309 6.85681 
25.7962 22.8533 5.71093 
27.2451 24.2449 7.00536 
1.27149 27.1835 4.31338 
2.84627 28.5375 5.6506 
1.46255 27.2258 7.28302 
2.92026 25.8058 5.8119 
0.0467805 25.7643 5.85447 
4.28183 27.1146 4.32614 
7.0726 27.3239 4.38952 
5.68548 28.6035 5.83757 
4.32366 27.0016 7.25051 
5.61528 25.5024 5.81249 
7.02063 27.237 7.12158 
10.1453 27.2511 4.45794 
11.4728 28.6757 5.8521 
8.61548 25.8335 5.80605 
10.0301 27.2227 7.04702 
11.4958 25.8899 5.86963 
12.9583 27.0733 4.27179 
15.8119 27.1731 4.31946 
14.2026 28.6695 5.92478 
12.8686 27.3008 7.26669 
14.341 25.8246 5.68054 
15.6147 27.2923 7.24021 
18.5994 27.2323 4.4136 
17.2121 25.7856 5.70285 
18.6221 27.2003 7.23753 
20.2582 25.8449 5.84776 
21.6337 27.4379 4.34761 
24.5332 27.3161 4.21247 
21.657 27.3478 7.10362 
23.2414 25.8498 5.67056 
27.3934 27.0523 4.24236 
28.6486 28.68 5.84294 
24.6211 27.2824 7.04752 
25.937 25.8008 5.71889 
27.0861 27.2414 6.92894 
2.85279 2.81657 8.40421 
0.033351 3.06831 8.46692 
1.36477 1.4813 9.95793 
2.90306 3.05197 11.2327 
4.05148 1.57783 10.0272 
0.0726017 2.96395 11.4744 
2.89016 0.00838022 11.4891 
5.71866 2.92383 8.56932 
6.98732 1.60876 10.1209 
5.52723 2.83856 11.4589 
5.71292 0.0612607 11.3579 
8.38317 2.79227 8.72724 
11.5067 2.81609 8.67467 
11.3502 0.0133829 8.57441 
8.42926 0.0870853 8.68996 
8.48494 0.0400287 11.3472 
10.0587 1.53968 10.0825 
8.44204 3.04997 11.5049 
11.5563 2.91948 11.4267 
14.2323 2.9986 8.44287 
14.2756 0.0867225 8.693 
12.894 1.36554 9.94273 
15.6488 1.47283 10.0614 
14.2086 2.82656 11.3925 
14.4415 0.121524 11.6495 
17.2897 2.81756 8.57992 
20.1137 2.81494 8.63261 
17.1838 0.0112545 8.6926 
18.9166 1.13915 9.89758 
17.1797 2.84069 11.4435 
19.9446 2.81535 11.414 
23.1605 2.94871 8.71561 
23.0253 0.0323405 11.4362 
21.7094 1.38348 9.86307 
23.0563 2.83584 11.4162 
24.5465 1.51053 10.0243 
25.8288 2.87112 8.48394 
25.994 0.0818609 11.3945 
27.4864 1.50333 9.89691 
25.9072 3.04655 11.4808 
2.80521 5.63429 8.47037 
0.101877 5.79118 8.74692 
1.59222 4.18933 9.98938 
1.6063 7.26275 10.0125 
3.03868 5.87412 11.3545 
0.176348 5.73141 11.6177 
5.6869 5.70201 8.3871 
4.30745 7.27212 9.94785 
6.92123 4.2434 10.1619 
4.42844 4.35046 9.89179 
7.16934 7.18748 9.95404 
5.75261 5.90305 11.4974 
8.39317 5.52592 8.48727 
11.2562 5.60218 8.6314 
10.1983 4.20698 10.0304 
10.0937 7.10055 9.96042 
8.54708 5.70041 11.4609 
11.272 5.85022 11.6161 
14.2838 5.78867 8.69986 
15.8057 4.20032 9.90746 
12.8842 4.48266 10.0257 
12.7621 7.05074 10.0978 
15.9457 7.25222 10.0168 
14.4263 5.81433 11.5442 
17.3602 5.7875 8.50837 
20.0039 5.65759 8.57568 
18.6284 4.34524 10.0764 
18.6167 7.33958 10.0112 
17.1389 5.77011 11.3552 
19.9278 5.89895 11.404 
22.9448 5.68657 8.63017 
21.555 4.23041 10.1207 
21.4701 7.03284 10.0464 
22.9446 5.62365 11.3323 
24.4194 7.19387 10.0746 
24.5037 4.42388 9.95519 
25.901 5.77288 8.71585 
27.3589 4.25096 10.082 
27.3597 7.35874 9.99266 
26.08 5.81524 11.3922 
2.88303 8.50176 8.37084 
2.73779 11.5549 8.63666 
0.0326103 11.3853 8.60678 
0.0231866 8.58809 8.43761 
1.65948 9.86527 9.85118 
2.96627 8.66655 11.6124 
2.91643 11.4472 11.3672 
0.0395656 11.3017 11.5774 
0.0596286 8.66491 11.4142 
5.79802 8.58606 8.47418 
5.71084 11.5052 8.57198 
4.19894 10.112 9.8944 
7.15875 10.1574 9.99327 
5.66713 8.76235 11.365 
5.80488 11.366 11.4036 
8.4467 8.62434 8.54304 
11.3209 8.6124 8.73478 
8.48115 11.6211 8.62585 
11.4227 11.5471 8.69177 
10.0759 10.1619 10.0475 
8.64767 8.61447 11.2361 
11.5184 8.67375 11.4125 
8.54858 11.5454 11.3726 
11.528 11.4508 11.5149 
14.1076 8.68007 8.7796 
14.2355 11.5177 8.6789 
12.9539 10.1345 10.0741 
15.5831 10.017 10.0238 
14.4324 8.62426 11.5139 
14.4253 11.5266 11.5651 
17.3491 8.79278 8.4508 
20.2732 8.51497 8.61187 
17.2106 11.4371 8.60546 
20.2249 11.4957 8.48886 
18.6241 10.1291 10.0203 
17.3453 8.69962 11.567 
20.1326 8.65551 11.3231 
17.1326 11.432 11.5301 
19.9651 11.4201 11.4477 
22.9937 8.5356 8.766 
23.1039 11.4513 8.66882 
21.6248 10.3017 10.088 
22.9084 8.61198 11.5333 
22.9738 11.4856 11.5818 
24.4959 10.1177 10.0836 
25.7418 8.71605 8.52855 
25.9374 11.4382 8.81231 
27.2956 9.89369 10.0025 
25.6999 8.5022 11.468 
25.7895 11.3142 11.4898 
2.93862 14.3544 8.64822 
0.017401 14.4318 8.72491 
1.32941 13.0171 10.0699 
1.62427 15.927 10.0913 
2.90126 14.3054 11.5268 
5.64328 14.3297 8.66869 
4.16703 15.7251 10.1967 
4.2141 12.867 10.0257 
7.16932 13.2056 10.1728 
7.061 15.8309 10.0319 
5.70396 14.4337 11.5052 
8.58385 14.2841 8.65846 
11.4395 14.4582 8.69888 
9.99536 13.0214 9.99967 
9.93151 15.6778 9.95747 
8.65096 14.4533 11.4697 
11.4327 14.3809 11.3848 
14.3531 14.571 8.38182 
12.9799 13.1975 9.8927 
15.6951 12.9563 10.001 
12.8644 15.8568 10.0568 
15.768 15.8858 9.8484 
14.3132 14.3 11.4903 
17.1493 14.3543 8.50612 
20.0973 14.3342 8.34966 
18.7454 12.9654 10.007 
18.6067 15.7523 10.0451 
17.219 14.426 11.3453 
20.184 14.3228 11.3052 
23.1148 14.4152 8.53723 
21.6527 12.8885 9.93844 
21.5177 15.9 10.0345 
23.091 14.3005 11.4394 
24.4644 15.898 10.0906 
24.3954 12.929 10.3147 
25.8832 14.3576 8.83013 
28.6543 14.4308 11.6942 
27.4638 12.8356 10.0889 
27.3893 15.8206 10.0998 
25.8436 14.3281 11.5797 
2.98173 17.1796 8.48641 
2.77232 19.994 8.45422 
0.0216491 20.1171 8.54045 
0.0410714 17.073 8.68404 
1.28549 18.6988 10.1813 
2.83035 17.2275 11.4941 
2.76864 20.0364 11.6119 
5.60549 17.2557 8.6672 
5.64499 20.0836 8.56144 
4.43283 18.7157 10.0948 
7.07988 18.7749 10.0327 
5.55285 17.2084 11.6115 
5.69255 19.8331 11.6912 
8.49778 17.1317 8.60539 
11.5555 17.1168 8.59846 
8.59786 19.8532 8.5892 
11.574 19.9998 8.56474 
10.0336 18.7856 9.96564 
8.8505 17.3541 11.3643 
11.3872 17.2271 11.3689 
8.41263 20.3489 11.4159 
11.4534 20.0675 11.5852 
14.264 17.3747 8.54236 
14.4146 20.0112 8.57694 
12.9034 18.5484 10.1706 
15.6763 18.5877 10.1611 
14.318 17.0711 11.4728 
14.3603 20.0276 11.6478 
17.1768 17.3819 8.68265 
20.1777 16.9869 8.58278 
17.4412 20.1189 8.69171 
20.3965 20.1878 8.67948 
18.8203 18.6044 9.90352 
17.0673 17.0995 11.4441 
20.0916 17.2082 11.6285 
17.3411 19.9395 11.4357 
20.2737 20.0069 11.5817 
23.0785 17.4161 8.53458 
23.0501 19.9727 8.68137 
21.5314 18.59 10.021 
22.9186 17.2598 11.4803 
23.1434 20.0921 11.7032 
24.4741 18.7703 10.0287 
25.9004 17.233 8.6205 
25.7836 19.9964 8.60487 
28.6214 20.2031 11.5812 
28.7047 17.2119 11.5085 
27.3002 18.7644 10.137 
25.8882 17.3666 11.5722 
25.7668 19.9794 11.5019 
2.74501 22.8169 8.71877 
1.49626 24.2689 10.1719 
1.3874 21.3789 10.0632 
2.85786 22.7174 11.653 
0.0349803 22.85 11.518 
5.74088 22.8638 8.68625 
4.13687 24.4532 10.1537 
7.08894 24.1876 10.1527 
4.1579 21.3595 10.0894 
6.94613 21.4965 10.1856 
5.40643 22.9354 11.5332 
8.49015 22.9943 8.79283 
11.4206 23.1479 8.71838 
9.8776 24.3462 10.137 
10.0408 21.6653 10.026 
8.54209 22.8617 11.5055 
11.481 22.925 11.4647 
14.429 22.8586 8.57104 
15.902 24.5185 10.0261 
13.0584 24.4062 10.0897 
14.2001 22.9383 11.3743 
12.7388 21.3696 9.87059 
15.7364 21.5853 10.0768 
17.1326 23.0452 8.52798 
20.2697 22.9104 8.73347 
18.6114 24.0557 10.0286 
18.6574 21.5438 10.0015 
17.1518 22.9396 11.4568 
20.1657 22.9147 11.3616 
23.0132 23.0321 8.72043 
24.4057 24.4086 10.0767 
21.768 21.4109 10.1258 
21.6196 24.4562 10.1655 
24.2423 21.5964 10.1515 
23.034 22.9376 11.6491 
28.6966 22.9843 8.59723 
25.917 22.7236 8.61636 
25.866 22.8806 11.3611 
27.2704 21.3764 10.0513 
27.2542 24.416 10.1312 
2.76427 28.6123 8.77749 
2.68339 25.7949 8.62658 
0.112035 28.5179 11.3484 
2.66661 25.7731 11.6363 
1.48907 27.2922 10.1063 
0.0371989 25.6889 11.5614 
5.57032 28.6982 8.67544 
5.69286 25.6798 8.58175 
4.16723 27.1515 10.0809 
5.73166 25.8468 11.354 
7.11149 27.327 9.96186 
8.49804 25.8326 8.49355 
11.2501 25.7478 8.71853 
11.4723 25.6962 11.4347 
8.53104 25.8459 11.5004 
9.89213 27.3395 10.0237 
11.6622 28.7065 11.4512 
14.4013 25.8818 8.63045 
14.2838 25.8432 11.522 
15.8619 27.36 10.1006 
12.9201 27.3314 10.0585 
20.1911 28.556 8.49636 
17.1419 25.8857 8.51054 
20.1126 25.7322 8.67247 
17.2877 28.6554 11.4488 
17.241 25.8371 11.3506 
18.5493 27.0805 9.8656 
19.9312 25.6864 11.5131 
20.1353 28.5306 11.411 
23.1096 28.6402 8.60145 
23.0848 25.8394 8.59497 
21.4272 27.2022 9.94347 
24.4629 27.1309 9.92659 
22.9109 26.0204 11.4918 
28.6976 28.4879 8.55211 
25.8513 28.6246 8.71434 
28.6857 25.8288 8.51212 
26.1177 25.7086 8.51342 
27.3861 27.0824 10.1439 
25.8074 25.8176 11.4799 
1.48651 1.50159 12.9184 
2.85452 2.87134 14.1905 
1.24083 1.21864 15.6591 
4.30161 1.5118 12.9424 
7.03788 1.4401 12.9368 
4.27245 1.3633 15.749 
7.11605 1.31506 15.7917 
5.68081 2.82045 14.4617 
9.8388 1.62569 12.9296 
11.4523 2.91105 14.2894 
10.012 1.36309 15.8121 
8.36737 2.8049 14.4866 
12.8203 1.43756 12.9161 
15.9206 1.52493 12.9465 
14.4045 2.82583 14.3126 
14.3713 0.060221 14.1844 
12.7021 1.26617 15.7846 
15.7408 1.46924 15.5478 
18.6464 1.51422 12.7756 
19.9786 3.01794 14.1884 
19.9866 0.0821266 14.2515 
18.7275 1.40265 15.7637 
17.4559 2.96459 14.3897 
22.8834 0.0325847 14.3225 
21.4423 1.61661 12.7077 
24.4715 1.52215 12.7949 
23.0954 2.80655 14.3513 
21.528 1.55289 15.7591 
24.4177 1.32124 15.8486 
25.9035 0.127383 14.2072 
27.3266 1.40891 12.7758 
25.8665 2.67374 14.3067 
27.4023 1.37075 15.6645 
28.6107 2.85239 14.3582 
1.5436 4.29696 12.9204 
1.64517 7.13844 12.9172 
1.49507 4.34022 15.6731 
1.52742 7.20092 15.9579 
2.90013 5.86885 14.3909 
4.42041 4.23487 13.0252 
4.32882 7.12295 12.9631 
7.01265 4.28234 12.8084 
7.03343 7.42244 12.8788 
5.75883 5.70509 14.3302 
4.16927 4.32953 15.9019 
4.33298 7.14187 15.9739 
7.09481 4.29272 15.9243 
7.01974 7.29421 15.6673 
10.061 4.45498 12.9519 
9.70697 7.10835 12.752 
8.36462 5.59967 14.1877 
11.5268 5.88862 14.2573 
10.0443 4.36856 15.8077 
9.95096 7.10647 15.7199 
15.7229 4.29185 12.9227 
12.7631 4.3287 13.0679 
12.9493 7.24341 12.9437 
15.8656 7.33704 13.175 
13.0034 4.28893 15.6325 
15.759 4.22395 15.7527 
12.828 7.16937 15.9076 
15.8891 7.11384 15.7165 
14.4222 5.94795 14.4446 
18.6948 4.2802 12.7685 
18.3973 7.13276 13.0449 
17.1775 5.57841 14.207 
18.7473 4.4918 15.8696 
18.766 7.27351 15.6891 
20.1312 5.77166 14.3636 
21.5243 4.28558 13.0506 
24.4484 4.27513 12.9936 
21.5228 7.30434 12.8842 
24.4449 7.3698 12.9421 
23.2678 5.83973 14.2932 
21.6042 4.45775 15.7047 
24.535 4.25319 15.7543 
21.7411 7.3805 15.8764 
24.4365 7.31075 15.9331 
27.3465 4.26054 12.9677 
27.397 7.41959 12.8476 
26.0515 5.67806 14.2337 
28.527 5.90821 14.3096 
27.3501 4.23564 15.9498 
27.3025 7.36542 15.8462 
1.52637 10.3062 12.8879 
2.77819 8.7601 14.3396 
2.82746 11.5374 14.4933 
1.30035 9.99836 15.8654 
0.017862 11.5356 14.4554 
0.0666864 8.50455 14.3983 
4.28867 10.2331 12.9618 
7.26582 9.96598 12.8236 
5.52014 8.63947 14.2191 
5.81074 11.3338 14.4393 
4.27896 10.0195 15.9471 
7.37949 9.9031 15.6764 
10.0304 10.1368 12.6722 
8.55379 8.6549 14.2192 
8.70972 11.4817 14.2392 
11.3942 8.49022 14.2627 
11.5216 11.4565 14.3981 
9.98414 10.0672 15.9324 
12.9158 10.0855 12.9203 
15.7698 9.94193 12.9605 
14.2066 11.428 14.3959 
14.2334 8.59187 14.3977 
12.8845 10.1125 15.8024 
15.7742 10.1249 15.8808 
18.7405 9.99244 12.9662 
17.2385 11.5277 14.2294 
20.1202 8.41807 14.2258 
17.1453 8.64804 14.6131 
18.5986 10.0952 15.772 
20.0564 11.3881 14.3674 
21.435 9.90322 12.8804 
24.2194 10.0307 12.8611 
22.838 11.5064 14.3393 
22.9583 8.7306 14.3433 
21.4104 10.1297 15.804 
24.5635 10.0599 15.7939 
27.2438 10.0554 12.8271 
25.7038 11.4337 14.2759 
25.8616 8.69612 14.5035 
27.2285 10.2226 15.6843 
1.37076 12.77 12.9792 
1.44229 15.7897 12.9372 
4.04328 15.7678 12.9908 
1.28447 12.8878 15.9863 
1.45004 15.8061 15.9244 
2.71779 14.3037 14.6099 
4.27276 12.8353 12.8295 
7.05833 12.9993 12.8099 
7.19181 15.6697 12.8254 
5.61189 14.2764 14.4609 
4.26289 12.7771 15.6689 
4.26709 15.6606 16.1077 
7.31009 12.8962 15.7073 
7.03536 15.7241 15.9064 
9.96113 12.8116 12.8293 
9.96022 15.8308 12.8329 
8.52336 14.3223 14.2115 
11.4162 14.3712 14.1998 
10.1871 13.0725 15.679 
9.93064 15.7491 15.6354 
12.8859 12.9786 12.9655 
15.816 12.9186 13.0329 
12.8344 15.673 12.8618 
15.71 15.7608 12.9341 
14.4817 14.4045 14.2925 
13.0537 12.9385 15.7588 
15.7081 12.8467 15.6847 
12.895 15.5488 15.7343 
15.7244 15.6058 15.883 
18.8684 12.9516 12.9648 
18.7583 15.7721 12.9367 
20.163 14.4221 14.256 
18.8474 12.621 15.8686 
18.7772 15.743 15.662 
17.4166 14.2047 14.4202 
21.5975 12.8594 12.6677 
21.526 15.7432 12.8785 
24.3435 12.893 12.9769 
24.286 15.7041 12.9194 
23.0064 14.1749 14.2996 
21.6111 12.8636 15.6685 
21.6712 15.7961 15.6984 
24.5543 15.8124 15.6654 
24.3965 12.7252 15.8006 
26.0137 14.2063 14.283 
27.3372 12.7258 12.6703 
27.0297 15.8603 12.7969 
28.4895 14.3157 14.1703 
27.2141 12.8242 15.8019 
27.1929 15.8125 15.7577 
1.26339 18.5653 13.03 
2.72592 20.0995 14.3404 
1.30757 18.7156 15.8928 
4.0731 18.784 15.7792 
2.7446 17.1553 14.5314 
4.21381 18.6841 13.064 
7.2281 18.6674 12.9519 
5.47263 16.9871 14.3736 
7.10248 18.6913 15.7401 
5.84073 20.2147 14.4867 
8.50269 17.1726 14.1093 
8.60207 20.0882 14.2683 
10.1647 18.6589 13.0795 
11.4168 20.2576 14.2939 
9.86937 18.764 15.8119 
11.4698 17.262 14.4908 
13.0067 18.3998 12.993 
15.6623 18.6014 12.8373 
14.1884 20.1242 14.2693 
12.9065 18.6038 15.6652 
15.7446 18.7031 15.766 
14.2563 17.0653 14.466 
18.5314 18.6523 12.9201 
20.0663 17.2098 14.1933 
20.1006 19.9724 14.4655 
18.7527 18.6494 15.8164 
17.0032 17.0802 14.3655 
17.034 20.2538 14.4215 
21.4725 18.7087 13.0829 
24.3511 18.7345 12.9661 
23.0132 20.2238 14.2235 
22.9526 17.3387 14.4036 
21.6026 18.5366 15.9341 
24.2669 18.6196 15.8269 
25.8684 17.36 14.1288 
27.3707 18.6964 12.9388 
25.7584 20.0838 14.5482 
27.1912 18.5298 15.7088 
28.5314 20.0631 14.4893 
28.5237 17.159 14.3988 
2.82142 22.9352 14.1876 
1.23634 21.3902 13.0767 
1.2746 24.3087 12.7876 
1.39059 21.7004 15.8212 
1.45385 24.407 15.5878 
4.19746 24.4913 12.7166 
4.19486 21.3639 13.1262 
7.0757 21.3897 13.055 
7.09618 24.4033 12.7526 
5.7375 23.0805 14.4089 
4.40877 21.5367 15.7848 
7.26485 21.6317 15.8704 
7.20878 24.3627 15.746 
4.36884 24.4746 15.5935 
8.63029 22.7794 14.3001 
10.0148 24.2791 12.7507 
10.1147 21.545 12.8843 
11.4899 22.9584 14.2451 
10.0057 21.5283 15.8521 
10.0346 24.3493 15.7534 
12.7916 24.5005 12.9246 
15.8126 24.3788 12.7991 
15.7131 21.5579 12.8396 
12.911 21.493 12.8072 
14.247 22.8841 14.3222 
12.877 21.6164 15.8302 
15.7431 21.5599 15.6923 
15.9712 24.1906 15.8151 
12.7619 24.4705 15.8982 
19.9769 23.082 14.2592 
18.5718 24.1793 12.8335 
18.7927 21.5221 12.7672 
17.1024 22.8313 14.1824 
18.6047 21.6338 15.7078 
18.4636 24.346 15.7113 
24.3993 24.5009 12.8564 
21.548 24.3042 12.7617 
24.2457 21.4856 12.9029 
21.351 21.6529 12.9622 
21.4064 21.7503 15.6966 
24.479 21.6455 15.9315 
21.3992 24.5431 15.8819 
24.2206 24.5445 15.6767 
22.7312 23.1392 14.4192 
27.3571 24.2671 12.8652 
26.967 21.3865 13.0095 
25.6405 22.9933 14.3732 
27.2686 21.5664 15.8602 
27.2067 24.4778 15.7816 
28.5536 22.992 14.3972 
1.49553 27.2997 12.9114 
1.34084 27.2934 15.6939 
2.79315 25.8305 14.3596 
2.93663 28.5454 14.3683 
7.1436 27.2848 12.7012 
4.38234 27.3625 12.6977 
5.77879 25.7518 14.0889 
5.75114 28.6687 14.2094 
4.3358 27.3307 15.675 
7.11263 27.1855 15.5848 
11.505 25.716 14.2859 
8.69716 25.784 14.1866 
8.43834 28.5118 14.1417 
10.2182 27.295 12.8385 
11.5878 28.4714 14.3278 
9.9971 27.3494 15.7957 
15.921 27.2014 12.8795 
12.8864 27.4412 12.852 
14.3785 25.6549 14.3304 
12.811 27.1675 15.8085 
15.7304 27.0411 15.6378 
17.1051 25.7188 14.2304 
18.6564 27.111 12.9175 
17.3126 28.6722 14.1827 
18.5531 27.2254 15.536 
20.0623 25.7449 14.4458 
24.4058 27.3842 12.8729 
21.5483 27.3225 12.9464 
22.8687 26.0052 14.3098 
21.3878 27.3028 15.7288 
24.3001 27.1855 15.6597 
27.2057 27.1455 12.782 
25.8806 25.7911 14.2834 
28.6268 25.7753 14.2058 
28.6433 28.6048 14.1051 
27.1343 27.175 15.6863 
1.42617 1.20546 18.6762 
2.70461 2.93766 17.1273 
0.211671 2.70129 17.3431 
2.79638 2.88924 19.8479 
4.35034 1.47338 18.5696 
7.18433 1.46716 18.4944 
5.56591 2.73618 17.1408 
4.38798 4.0809 18.5888 
5.75914 2.86105 20.1435 
9.97629 1.31514 18.5153 
8.67259 2.86579 17.1846 
11.5308 2.98824 17.0936 
8.44985 0.0149938 17.0108 
8.47744 3.02904 20.007 
11.4274 2.94308 20.0499 
8.49537 0.0434495 19.985 
12.9179 1.42516 18.3778 
15.6773 1.43934 18.5981 
14.5067 2.83695 17.1749 
14.2826 3.08464 20.0322 
18.64 1.5637 18.6066 
17.0647 3.10209 17.3879 
20.3031 2.96066 17.0956 
20.0894 0.0289414 17.4514 
17.0714 0.256875 17.1266 
17.2276 2.87624 20.0867 
20.3194 2.75992 19.8831 
20.0438 0.0623894 20.0053 
21.6214 1.41684 18.6727 
23.1248 2.84289 17.1633 
24.5965 1.25263 18.5748 
22.9389 0.0744711 17.0314 
22.993 2.78697 20.0295 
27.4026 1.37928 18.6472 
26.0208 2.77232 17.1348 
25.9084 0.0311997 17.1226 
28.6041 3.05571 20.1717 
25.885 2.90129 20.0274 
25.8902 0.0115366 20.1263 
1.30062 4.26512 18.6563 
1.62352 7.24837 18.6759 
2.91026 5.7771 17.3745 
0.167398 5.83956 17.2572 
2.78149 5.66257 20.0505 
4.24283 7.17881 18.7866 
7.05018 4.29583 18.6826 