ITEM: TIMESTEP
4038
ITEM: NUMBER OF ATOMS
2001
ITEM: BOX BOUNDS pp pp pp
0.0000000000000000e+00 2.8712000000000000e+01
0.0000000000000000e+00 2.8712000000000000e+01
0.0000000000000000e+00 2.8712000000000000e+01
ITEM: ATOMS x y z c_cna 
1.435 1.43569 1.43563 3 
2.87061 2.8702 2.87001 3 
2.87061 0.000165358 2.87079 3 
2.87061 2.87094 0.00018417 3 
2.87062 0.000979648 0.000972461 3 
4.30621 1.43568 1.43559 3 
7.17762 1.43564 1.43552 3 
5.74206 2.87022 2.87 3 
5.74186 2.87104 0.000111522 3 
5.74186 0.000101156 2.87081 3 
5.74121 0.00113309 0.00115365 3 
10.049 1.43545 1.43542 3 
8.61353 2.87022 2.87001 3 
11.4847 2.8702 2.8701 3 
11.4843 0.000723751 0.000780606 3 
8.61267 0.00102034 0.00104308 3 
12.9202 1.43532 1.43536 3 
15.791 1.43524 1.43537 3 
14.3556 2.87018 2.87024 3 
14.3555 0.000470448 0.000551559 3 
18.6617 1.4352 1.43538 3 
17.2263 2.87014 2.87029 3 
20.0971 2.87016 2.87026 3 
17.2264 0.000378543 0.000501218 3 
20.0973 0.0004433 0.000553173 3 
21.5326 1.43529 1.43539 3 
24.4039 1.43546 1.43553 3 
22.9681 2.87016 2.87023 3 
22.9686 0.000732551 0.000777831 3 
28.7113 0.0001904 2.87091 3 
28.7111 2.87019 2.87009 3 
27.2755 1.43565 1.43565 3 
25.8395 2.87016 2.8702 3 
28.712 0.00121746 0.00120464 3 
25.8397 2.87094 3.71253e-05 3 
28.7113 2.87098 0.000218405 3 
25.8404 0.00112173 0.00116669 3 
1.43487 4.30556 1.43477 3 
1.43493 7.17582 1.43436 3 
2.87057 5.74026 2.86928 3 
4.30629 4.30562 1.43472 3 
7.17779 4.30574 1.43463 3 
4.30608 7.17594 1.43431 3 
7.17742 7.17614 1.43423 3 
5.74179 5.74036 2.8692 3 
10.0492 4.30589 1.43452 3 
10.049 7.17656 1.43416 3 
8.61328 5.74059 2.86924 3 
11.4846 5.74088 2.86934 3 
12.9203 4.30596 1.43447 3 
15.791 4.30598 1.43448 3 
12.9203 7.17691 1.43408 3 
15.7911 7.17708 1.43406 3 
14.3556 5.74104 2.86945 3 
18.6617 4.30596 1.43452 3 
18.6618 7.17699 1.43412 3 
17.2264 5.74106 2.86954 3 
20.0971 5.74093 2.86957 3 
21.5325 4.30586 1.43457 3 
24.4037 4.30572 1.43469 3 
21.5326 7.17668 1.43419 3 
22.9682 5.74069 2.86951 3 
24.4039 7.17626 1.43429 3 
27.2753 4.30561 1.43478 3 
28.7113 5.74023 2.8693 3 
27.2755 7.1759 1.43433 3 
25.8397 5.74043 2.86941 3 
1.43508 10.0468 1.43446 3 
2.87049 8.61101 2.86905 3 
2.87045 11.4825 2.86929 3 
4.30583 10.0469 1.43443 3 
7.17691 10.0471 1.43444 3 
5.74138 8.61114 2.86899 3 
5.74105 11.4826 2.86927 3 
10.0486 10.0475 1.43432 3 
8.61273 8.6114 2.86898 3 
11.4844 8.61192 2.86915 3 
8.61233 11.4828 2.86927 3 
11.484 11.4833 2.86939 3 
12.9201 10.0482 1.4342 3 
15.7912 10.0485 1.43418 3 
14.3556 8.61231 2.86931 3 
14.3555 11.4839 2.86959 3 
18.6619 10.0484 1.43418 3 
17.2264 8.6124 2.8694 3 
20.0973 8.61216 2.86937 3 
17.2266 11.4841 2.86967 3 
20.0976 11.4837 2.86964 3 
21.5329 10.0479 1.43428 3 
24.4044 10.0472 1.43444 3 
22.9685 8.61166 2.86928 3 
22.969 11.483 2.8695 3 
28.7116 8.61094 2.86907 3 
28.7119 11.4824 2.86933 3 
27.276 10.0468 1.43452 3 
25.8402 8.61113 2.86911 3 
25.8406 11.4825 2.86936 3 
1.43523 12.9183 1.43484 3 
1.43533 15.7903 1.43532 3 
2.87045 14.3544 2.86974 3 
2.2591e-05 14.3543 2.86977 3 
0.00031389 14.3541 0.000422164 3 
2.87037 14.3543 0.000130023 3 
4.30561 12.9185 1.43481 3 
7.17648 12.9185 1.43491 3 
4.3055 15.7904 1.43531 3 
7.17621 15.7903 1.43541 3 
5.74088 14.3545 2.86975 3 
5.74048 14.3543 0.000390307 3 
10.0481 12.9189 1.43479 3 
10.0478 15.7905 1.43527 3 
8.61208 14.3546 2.86978 3 
11.4838 14.3548 2.86989 3 
8.61155 14.3542 0.000558775 3 
12.9199 12.9196 1.43443 3 
15.7912 12.9201 1.43425 3 
12.9196 15.7909 1.43478 3 
15.7911 15.7914 1.43437 3 
14.3554 14.3552 2.86999 3 
18.6621 12.92 1.43428 3 
18.6623 15.7913 1.43436 3 
17.2267 14.3555 2.87005 3 
20.0979 14.3551 2.87003 3 
21.5333 12.9193 1.4345 3 
24.4049 12.9186 1.43485 3 
21.5337 15.7908 1.43476 3 
24.4053 15.7904 1.43526 3 
22.9693 14.3547 2.86995 3 
27.2764 12.9183 1.43495 3 
27.2767 15.7902 1.43545 3 
25.8409 14.3544 2.86983 3 
25.8414 14.354 0.000569851 3 
1.43541 18.6624 1.43576 3 
2.87045 17.2264 2.87026 3 
2.87044 20.0984 2.87069 3 
4.60477e-05 17.2264 2.87025 3 
2.87042 20.0984 0.000952371 3 
2.87041 17.2263 0.000520981 3 
2.78251e-05 20.0984 2.87072 3 
0.000738758 20.0984 0.00137001 3 
0.00059583 17.2262 0.000899022 3 
4.30546 18.6623 1.43576 3 
7.1761 18.6623 1.43594 3 
5.74087 17.2264 2.87027 3 
5.74091 20.0983 2.87073 3 
5.74025 17.2262 0.000911159 3 
5.74014 20.0983 0.001402 3 
8.61082 20.0984 0.00173131 3 
10.0476 18.6623 1.43576 3 
8.61207 17.2264 2.8703 3 
11.4838 17.2264 2.87038 3 
8.61217 20.0982 2.87079 3 
11.4839 20.0979 2.87084 3 
11.4831 17.2264 0.000341616 3 
8.61113 17.2262 0.00111922 3 
11.4827 20.0986 0.00105964 3 
12.9194 18.6623 1.43525 3 
15.791 18.6622 1.43482 3 
14.3553 17.2263 2.87047 3 
14.3554 20.0974 2.87089 3 
18.6625 18.6622 1.43481 3 
17.2267 17.2263 2.87049 3 
20.098 17.2263 2.87047 3 
17.2267 20.0971 2.87089 3 
20.0979 20.0975 2.87085 3 
21.5339 18.6623 1.43519 3 
24.4055 18.6623 1.43571 3 
22.9694 17.2263 2.87036 3 
22.9694 20.098 2.87078 3 
22.9702 17.2264 0.000296203 3 
22.9706 20.0987 0.000939017 3 
27.2769 18.6623 1.43591 3 
25.841 17.2263 2.87028 3 
25.8409 20.0983 2.87075 3 
25.8419 17.2261 0.00110475 3 
25.8422 20.0985 0.00167778 3 
1.43543 21.5344 1.43615 3 
1.43542 24.4062 1.4364 3 
2.87051 22.9704 0.00131067 3 
2.87051 22.9702 2.87103 3 
0.000809985 22.9706 0.0017505 3 
4.30551 21.5343 1.43614 3 
7.17614 21.5343 1.43641 3 
4.3057 24.4061 1.43639 3 
7.17637 24.4061 1.43664 3 
5.74112 22.9701 2.87107 3 
5.74023 22.9705 0.00174053 3 
10.0476 21.5342 1.43629 3 
10.0479 24.4059 1.43662 3 
8.61238 22.9699 2.87117 3 
11.4841 22.9694 2.87123 3 
8.61087 22.9708 0.00224108 3 
11.4827 22.9708 0.00179532 3 
12.9194 21.5338 1.43586 3 
15.791 21.5332 1.43551 3 
12.9198 24.4052 1.43628 3 
15.7911 24.4048 1.4361 3 
14.3556 22.9687 2.87122 3 
14.3552 22.9699 0.000891417 3 
18.6623 21.5332 1.43546 3 
18.6621 24.4048 1.43605 3 
17.2266 22.9685 2.8712 3 
20.0976 22.9688 2.87114 3 
17.2266 22.9695 0.000570696 3 
20.0981 22.97 0.000786022 3 
21.5339 21.5339 1.43576 3 
24.4055 21.5343 1.4362 3 
21.5333 24.4054 1.43618 3 
24.4052 24.4061 1.43655 3 
22.9691 22.9695 2.87114 3 
22.9704 22.971 0.00167749 3 
28.7119 22.9702 2.87107 3 
27.2769 21.5344 1.43637 3 
27.2767 24.4063 1.43662 3 
25.8407 22.97 2.87111 3 
25.8423 22.971 0.00216689 3 
1.43526 27.2774 1.43629 3 
2.87058 25.8415 2.87114 3 
0.000633322 25.8425 0.0018118 3 
2.87059 25.8421 0.00139245 3 
4.3059 27.2773 1.43624 3 
7.17691 27.2773 1.43639 3 
5.74145 25.8414 2.87118 3 
5.74055 25.8423 0.00177399 3 
8.61331 28.7119 2.87086 3 
11.4847 28.7116 2.87096 3 
10.0486 27.2769 1.43627 3 
8.6128 25.8412 2.87129 3 
11.4844 25.8406 2.8713 3 
8.61143 25.8427 0.00218644 3 
11.4837 25.842 0.00167175 3 
14.3556 28.7114 2.87102 3 
12.92 27.2765 1.43613 3 
15.791 27.2763 1.43606 3 
14.3556 25.8402 2.87135 3 
14.3554 25.8415 0.00127679 3 
17.2264 28.7113 2.87105 3 
20.0972 28.7114 2.87101 3 
18.6619 27.2763 1.43604 3 
17.2265 25.8401 2.87135 3 
20.0974 25.8403 2.87129 3 
20.0977 25.8416 0.00120723 3 
17.2265 25.8413 0.0011203 3 
22.9682 28.7117 2.87101 3 
21.5329 27.2766 1.43612 3 
24.4044 27.2771 1.43629 3 
22.9686 25.8408 2.87125 3 
22.9694 25.8422 0.00158077 3 
25.8397 28.712 2.87097 3 
28.7117 25.8416 2.87122 3 
27.2762 27.2775 1.43645 3 
25.8402 25.8413 2.87129 3 
25.8417 25.8429 0.00218039 3 
1.43493 1.43483 4.30534 3 
1.43509 1.43443 7.17548 3 
2.87061 2.86948 5.73991 3 
4.3063 1.43482 4.30532 3 
7.17775 1.43473 4.30542 3 
4.30617 1.43444 7.17546 3 
7.17737 1.43434 7.17566 3 
5.74181 2.86946 5.73992 3 
10.0491 1.43458 4.30565 3 
10.0488 1.43423 7.1762 3 
8.61322 2.86944 5.7402 3 
11.4845 2.86946 5.74062 3 
12.9202 1.43444 4.30591 3 
15.791 1.43436 4.30606 3 
12.92 1.43407 7.17673 3 
15.7909 1.43401 7.17702 3 
14.3555 2.86944 5.74096 3 
18.6617 1.43437 4.30607 3 
18.6617 1.43405 7.17703 3 
17.2263 2.86945 5.7411 3 
20.0971 2.86946 5.74099 3 
21.5325 1.43449 4.30596 3 
24.4038 1.43464 4.30578 3 
21.5327 1.43414 7.17673 3 
24.404 1.4343 7.17623 3 
22.9682 2.86948 5.74073 3 
28.7114 2.86941 5.73999 3 
27.2753 1.43478 4.30553 3 
27.2757 1.43441 7.17572 3 
25.8397 2.86945 5.74031 3 
1.43501 4.30471 4.30447 3 
1.43525 7.1751 4.30385 3 
1.43535 4.3041 7.17474 3 
1.43583 7.17428 7.17397 3 
2.87062 5.73945 5.73907 3 
4.28847e-05 5.73921 5.73897 3 
4.30616 4.30474 4.30443 3 
7.17753 4.30483 4.30448 3 
4.30586 7.1752 4.30382 3 
7.1768 7.17516 4.30368 3 
4.3059 4.30411 7.17471 3 
7.17677 4.30398 7.17468 3 
4.30534 7.17432 7.17393 3 
5.74112 5.7393 5.73886 3 
7.17516 7.17353 7.17315 3 
10.049 4.30498 4.3047 3 
10.0484 7.17553 4.30394 3 
10.0483 4.30417 7.17515 3 
8.6125 5.73941 5.73903 3 
10.0471 7.17377 7.17346 3 
11.4841 5.73972 5.73949 3 
12.9201 4.30507 4.30496 3 
15.7909 4.30513 4.30515 3 
12.9199 7.17592 4.30431 3 
15.7909 7.17612 4.30452 3 
12.9198 4.30438 7.17571 3 
15.7908 4.30451 7.17602 3 
12.9192 7.17434 7.17418 3 
14.3554 5.73993 5.73985 3 
15.7907 7.17464 7.17461 3 
18.6617 4.30509 4.30518 3 
18.6618 7.17607 4.30454 3 
18.6617 4.30447 7.17606 3 
17.2263 5.74001 5.74003 3 
18.6619 7.17459 7.17465 3 
20.0973 5.73989 5.73992 3 
21.5326 4.30501 4.3051 3 
24.4039 4.30489 4.30487 3 
21.5329 7.17578 4.30441 3 
24.4044 7.17532 4.30408 3 
21.5329 4.30438 7.17576 3 
21.5335 7.17423 7.17425 3 
22.9687 5.73963 5.73961 3 
24.4045 4.30414 7.17523 3 
24.4058 7.17358 7.17354 3 
27.2755 4.30475 4.30462 3 
27.2762 7.17497 4.30382 3 
27.2764 4.30396 7.17474 3 
25.8405 5.73926 5.73915 3 
27.2779 7.17341 7.17322 3 
1.43539 10.0464 4.30384 3 
0.000644636 8.61002 5.73839 3 
1.43599 10.0458 7.1738 3 
2.87055 8.61038 5.73873 3 
2.87047 11.4822 5.73892 3 
0.000838153 11.4819 5.73852 3 
4.30559 10.0465 4.30379 3 
7.17623 10.0465 4.3036 3 
4.30502 10.0458 7.17379 3 
5.74042 8.61016 5.73835 3 
7.1741 10.0449 7.17254 3 
5.74008 11.4821 5.7385 3 
10.0478 10.0466 4.30377 3 
8.61119 8.60978 5.73801 3 
10.0449 10.0439 7.17195 3 
11.4834 8.61036 5.7387 3 
8.61064 11.4817 5.73809 3 
11.4825 11.4817 5.73871 3 
12.9196 10.0473 4.30432 3 
15.7909 10.0477 4.30465 3 
12.9185 10.0451 7.1735 3 
14.3552 8.61094 5.73927 3 
15.7906 10.0459 7.17427 3 
14.3549 11.4826 5.7398 3 
18.662 10.0477 4.30467 3 
17.2264 8.6111 5.73947 3 
18.6621 10.0458 7.1743 3 
20.0976 8.61085 5.73932 3 
17.2265 11.483 5.74016 3 
20.098 11.4825 5.7399 3 
21.5333 10.0471 4.30444 3 
24.4052 10.0464 4.30389 3 
21.5343 10.0449 7.17358 3 
22.9694 8.61018 5.73881 3 
24.4079 10.0436 7.17201 3 
22.9704 11.4815 5.73882 3 
27.2767 10.0462 4.3037 3 
25.8417 8.60954 5.73812 3 
27.2788 10.0447 7.17257 3 
25.8423 11.4815 5.73818 3 
1.43544 12.9183 4.30419 3 
1.43541 15.7904 4.3047 3 
1.43595 12.918 7.1742 3 
1.43584 15.7904 7.17471 3 
2.87043 14.3543 5.73943 3 
0.00080472 14.3542 5.73903 3 
4.30546 12.9184 4.3042 3 
7.17603 12.9184 4.30401 3 
4.30545 15.7905 4.30474 3 
7.17604 15.7905 4.3046 3 
4.30493 12.918 7.1742 3 
7.17399 12.9176 7.17295 3 
4.305 15.7904 7.17477 3 
5.74006 14.3544 5.73905 3 
7.17428 15.7904 7.17371 3 
10.0475 12.9185 4.30425 3 
10.0475 15.7905 4.30488 3 
10.0445 12.9168 7.17249 3 
8.61068 14.3542 5.73878 3 
10.0451 15.7902 7.17359 3 
11.4824 14.354 5.73961 3 
12.9192 12.9188 4.30487 3 
15.7909 12.9194 4.30533 3 
12.9193 15.7904 4.30557 3 
15.7908 15.7904 4.3061 3 
12.917 12.9165 7.17399 3 
15.7904 12.918 7.17579 3 
12.9174 15.7895 7.17549 3 
14.3545 14.3541 5.7409 3 
15.7899 15.789 7.17758 3 
18.6622 12.9193 4.30538 3 
18.6625 15.7904 4.30613 3 
18.6625 12.918 7.17583 3 
17.2266 14.3545 5.74148 3 
18.6632 15.789 7.17762 3 
20.0987 14.354 5.74095 3 
21.5338 12.9187 4.30495 3 
24.4055 12.9183 4.30434 3 
21.5339 15.7904 4.3056 3 
24.4055 15.7904 4.30493 3 
21.5359 12.9164 7.17407 3 
24.4084 12.9166 7.17255 3 
21.5357 15.7894 7.17552 3 
22.9706 14.3539 5.73966 3 
24.4079 15.7901 7.17362 3 
27.2769 12.9182 4.30405 3 
27.2769 15.7904 4.30459 3 
27.2789 12.9175 7.17297 3 
25.8423 14.3541 5.73883 3 
27.2786 15.7904 7.17368 3 
1.43537 18.6625 4.3052 3 
1.43572 18.6625 7.17528 3 
2.87041 17.2265 5.73996 3 
2.87043 20.0985 5.74042 3 
0.00064062 17.2266 5.7396 3 
0.000404421 20.0986 5.74013 3 
4.30553 18.6625 4.30523 3 
7.17622 18.6625 4.30513 3 
4.30513 18.6625 7.1753 3 
5.74024 17.2266 5.73965 3 
7.17477 18.6628 7.17448 3 
5.74051 20.0985 5.74016 3 
10.0478 18.6623 4.30545 3 
8.61101 17.2266 5.73948 3 
10.0459 18.6629 7.17448 3 
11.4829 17.2262 5.74041 3 
8.61148 20.0985 5.74009 3 
11.4835 20.098 5.74091 3 
12.9196 18.6618 4.30607 3 
15.7911 18.6613 4.30658 3 
12.9185 18.6619 7.17625 3 
14.3549 17.2256 5.74177 3 
15.7909 18.6603 7.17819 3 
14.3555 20.097 5.74201 3 
18.6623 18.6613 4.3066 3 
17.2267 17.2251 5.74253 3 
18.6623 18.6603 7.17822 3 
20.0984 17.2256 5.74181 3 
17.2266 20.0965 5.74244 3 
20.0978 20.097 5.74202 3 
21.5337 18.6619 4.30607 3 
24.4053 18.6623 4.3054 3 
21.5347 18.662 7.17626 3 
22.9703 17.2262 5.74041 3 
24.4072 18.6629 7.17446 3 
22.9697 20.0981 5.7409 3 
27.2767 18.6625 4.3051 3 
25.842 17.2266 5.73947 3 
27.2782 18.6629 7.17442 3 
25.8415 20.0987 5.74006 3 
1.43528 21.5344 4.30565 3 
1.43518 24.4058 4.30592 3 
1.43557 21.5344 7.1757 3 
6.22605e-05 22.9702 5.74058 3 
1.43534 24.4057 7.17594 3 
2.8705 22.9701 5.74075 3 
4.30565 21.5343 4.30563 3 
7.17649 21.5342 4.30562 3 
4.30589 24.4057 4.3059 3 
7.17694 24.4056 4.30596 3 
4.30537 21.5343 7.17569 3 
7.17539 21.5347 7.17515 3 
4.30567 24.4056 7.17596 3 
5.74092 22.9701 5.74063 3 
7.17629 24.4058 7.17578 3 
10.0481 21.5338 4.30587 3 
10.0468 21.5346 7.17528 3 
8.61211 22.97 5.74068 3 
10.0479 24.4054 7.17619 3 
11.484 22.9693 5.74128 3 
10.0485 24.4051 4.30619 3 
12.9199 21.5331 4.30635 3 
15.7911 21.5326 4.30665 3 
12.9201 24.4045 4.3065 3 
15.7911 24.4041 4.30666 3 
12.9194 21.5335 7.1766 3 
15.7911 21.5325 7.17762 3 
12.9198 24.4045 7.17709 3 
14.3556 22.9685 5.74193 3 
15.7911 24.4039 7.17759 3 
18.6621 21.5326 4.30662 3 
18.6619 24.4041 4.30663 3 
18.662 21.5325 7.17762 3 
17.2266 22.9682 5.74214 3 
18.6619 24.404 7.17758 3 
20.0975 22.9686 5.74189 3 
21.5333 21.5333 4.3063 3 
24.405 21.534 4.30581 3 
21.533 24.4046 4.30642 3 
21.5337 21.5337 7.17659 3 
21.5331 24.4047 7.17705 3 
22.969 22.9695 5.74125 3 
24.4051 24.4056 7.17617 3 
24.4062 21.5348 7.17523 3 
24.4045 24.4053 4.30615 3 
27.2765 21.5344 4.30558 3 
27.2761 24.4058 4.30593 3 
27.2776 21.5348 7.17509 3 
25.8409 22.9702 5.74062 3 
27.2767 24.406 7.17575 3 
2.87062 28.7116 5.74062 3 
1.43503 27.2767 4.30587 3 
1.43511 27.2764 7.17595 3 
2.87057 25.8412 5.74088 3 
4.30616 27.2766 4.30585 3 
7.17747 27.2764 4.30596 3 
5.74188 28.7115 5.74068 3 
4.30602 27.2763 7.17596 3 
5.74144 25.8411 5.74086 3 
7.17715 27.2762 7.1761 3 
10.0489 27.276 4.30617 3 
8.61329 28.7113 5.74098 3 
11.4846 28.7109 5.74145 3 
8.61283 25.8408 5.74109 3 
10.0487 27.2758 7.17663 3 
11.4844 25.8402 5.74157 3 
12.9202 27.2756 4.30646 3 
15.791 27.2754 4.30658 3 
14.3556 28.7107 5.74175 3 
12.92 27.2752 7.17725 3 
14.3556 25.8397 5.742 3 
15.791 27.275 7.1776 3 
17.2264 28.7106 5.74186 3 
18.6618 27.2754 4.30657 3 
20.0971 28.7108 5.74178 3 
17.2265 25.8396 5.74214 3 
18.6617 27.275 7.17762 3 
20.0973 25.8398 5.74199 3 
22.9682 28.711 5.74148 3 
21.5327 27.2757 4.30645 3 
24.404 27.2762 4.30623 3 
21.5328 27.2754 7.17725 3 
22.9685 25.8404 5.74156 3 
24.4042 27.2759 7.17663 3 
28.7113 28.7116 5.74073 3 
25.8397 28.7114 5.74106 3 
28.7116 25.8413 5.74088 3 
27.2756 27.2766 4.30603 3 
25.8402 25.841 5.7411 3 
27.2759 27.2764 7.17611 3 
2.87065 2.86923 8.61056 3 
1.43534 1.43454 10.0464 3 
2.87064 2.86939 11.4821 3 
0.000162581 2.86942 11.4821 3 
5.74138 2.86919 8.61062 3 
4.30593 1.43453 10.0464 3 
7.17682 1.43452 10.0466 3 
5.74105 2.8694 11.4822 3 
8.61259 2.86914 8.61094 3 
11.4841 2.86925 8.61158 3 
10.0483 1.4344 10.0472 3 
8.61209 2.86942 11.4824 3 
11.4836 2.86949 11.483 3 
14.3553 2.86933 8.61214 3 
12.9198 1.43423 10.0479 3 
15.7908 1.43417 10.0483 3 
14.3551 2.86959 11.4837 3 
17.2262 2.86936 8.61232 3 
20.0973 2.86934 8.6121 3 
18.6617 1.43422 10.0483 3 
17.2263 2.86965 11.4839 3 
20.0975 2.86966 11.4836 3 
22.9686 2.8693 8.61158 3 
21.5329 1.43435 10.0478 3 
24.4046 1.43451 10.0471 3 
22.9691 2.86951 11.4828 3 
28.7118 2.86918 8.61063 3 
25.8404 2.86919 8.6109 3 
27.2763 1.43459 10.0466 3 
25.8409 2.86941 11.4823 3 
25.841 7.7861e-05 11.4822 3 
1.43561 4.30399 10.046 3 
2.87062 5.739 8.60996 3 
0.000796944 5.73856 8.60973 3 
1.43611 7.17397 10.0455 3 
2.87061 5.73904 11.4819 3 
0.00108068 5.73856 11.4817 3 
5.74041 5.73865 8.60969 3 
4.30505 7.17401 10.0455 3 
4.30566 4.304 10.046 3 
7.17615 4.30382 10.046 3 
7.17404 7.17278 10.0446 3 
5.74008 5.73868 11.4817 3 
8.61114 5.73829 8.60936 3 
11.4833 5.73886 8.61008 3 
10.0475 4.30394 10.0463 3 
10.0448 7.17212 10.0436 3 
8.61047 5.73827 11.4814 3 
11.4822 5.73878 11.4815 3 
15.7907 4.30463 10.0476 3 
14.355 5.7393 8.61078 3 
12.9193 4.30439 10.047 3 
12.9184 7.17355 10.045 3 
15.7905 7.17418 10.0458 3 
14.3546 5.73977 11.4825 3 
17.2263 5.7394 8.61105 3 
20.0976 5.73924 8.61083 3 
18.6618 4.30461 10.0476 3 
18.6621 7.17414 10.0458 3 
17.2263 5.74004 11.483 3 
20.098 5.73971 11.4825 3 
22.9695 5.73878 8.61012 3 
21.5333 4.3044 10.047 3 
24.4054 4.30389 10.0462 3 
21.5343 7.17343 10.045 3 
22.9706 5.73865 11.4814 3 
24.4081 7.17192 10.0436 3 
25.8419 5.73821 8.60939 3 
27.2769 4.30376 10.046 3 
27.279 7.17261 10.0446 3 
25.8425 5.73813 11.4813 3 
2.87055 8.60979 8.60951 3 
0.00204545 11.4811 8.60873 3 
2.87047 11.4817 8.60967 3 
1.43635 10.0452 10.0451 3 
0.0021768 8.60871 11.481 3 
2.87053 8.60975 11.4816 3 
2.87044 11.4815 11.4815 3 
0.00186013 8.60893 8.60875 3 
0.0023703 11.4805 11.4806 3 
5.7392 8.60904 8.60873 3 
5.73887 11.4812 8.60874 3 
4.30466 10.0453 10.0452 3 
7.17219 10.0433 10.0431 3 
5.73885 8.60887 11.481 3 
5.73856 11.4806 11.4807 3 
8.60792 8.60687 8.60662 3 
11.4815 8.60769 8.60752 3 
8.60674 11.4793 8.60599 3 
11.4778 11.4771 8.60519 3 
10.0385 10.0381 10.038 3 
8.60666 8.60608 11.4791 3 
11.4777 8.6052 11.477 3 
8.60416 11.4767 11.4767 3 
11.4638 11.4645 11.4645 3 
14.3545 8.60873 8.60868 3 
14.3542 11.48 8.60865 3 
12.9166 10.0412 10.0412 3 
15.7904 10.0427 10.0428 3 
14.354 8.60853 11.48 3 
14.3545 11.4749 11.4751 3 
17.2263 8.60898 8.60905 3 
20.0981 8.6086 8.60871 3 
17.2264 11.4808 8.60942 3 
20.0987 11.4799 8.60869 3 
18.6624 10.0426 10.0428 3 
17.2263 8.60915 11.4809 3 
20.0987 8.60837 11.48 3 
17.2264 11.476 11.4763 3 
20.0983 11.4747 11.4751 3 
22.9713 8.60751 8.60758 3 
22.975 11.4769 8.60527 3 
21.5362 10.041 10.0412 3 
22.9751 8.60498 11.477 3 
22.9891 11.4642 11.4645 3 
24.4144 10.0379 10.038 3 
25.845 8.60666 8.60665 3 
25.8461 11.4791 8.60602 3 
27.2808 10.0431 10.0431 3 
25.8463 8.60584 11.4791 3 
25.8487 11.4765 11.4767 3 
2.87042 14.3541 8.61016 3 
1.43621 12.9176 10.0455 3 
1.43599 15.7901 10.046 3 
2.87042 14.3538 11.4819 3 
0.00179051 14.3539 8.6093 3 
0.00180066 14.3534 11.4811 3 
5.73905 14.3539 8.60932 3 
4.30467 12.9176 10.0455 3 
7.1723 12.9165 10.0433 3 
4.30481 15.7901 10.046 3 
7.17296 15.7901 10.0443 3 
5.73898 14.3535 11.4811 3 
8.60721 14.3534 8.60694 3 
11.478 14.352 8.60684 3 
10.0378 12.9133 10.038 3 
10.0394 15.7901 10.0401 3 
8.6054 14.3521 11.4776 3 
11.4658 14.348 11.4675 3 
14.3515 14.3512 8.61007 3 
12.9095 12.9089 10.0376 3 
15.7907 12.9158 10.045 3 
12.9112 15.7879 10.0413 3 
15.7861 15.7852 10.0478 3 
14.3386 14.339 11.4702 3 
17.2265 14.3533 8.61248 3 
20.1015 14.3511 8.61011 3 
18.6622 12.9157 10.0451 3 
18.6669 15.7852 10.0478 3 
17.2265 14.3541 11.4858 3 
20.1144 14.3389 11.4701 3 
22.9749 14.3519 8.60684 3 
21.5434 12.9087 10.0377 3 
21.5418 15.7879 10.0413 3 
24.4135 15.79 10.0401 3 
22.9872 14.3479 11.4674 3 
24.4151 12.9131 10.038 3 
25.8457 14.3533 8.60694 3 
27.2806 12.9164 10.0433 3 
27.2799 15.79 10.0442 3 
25.8474 14.3519 11.4776 3 
2.87041 17.2263 8.61071 3 
2.87045 20.0984 8.61111 3 
0.00151748 17.2265 8.60996 3 
1.43588 18.6623 10.0465 3 
2.87038 17.226 11.4824 3 
2.87041 20.098 11.4827 3 
0.00145198 17.2261 11.4817 3 
0.00117688 20.0987 8.61053 3 
0.00132639 20.0984 11.4822 3 
5.73934 17.2265 8.61001 3 
5.73972 20.0986 8.6106 3 
4.30493 18.6623 10.0465 3 
7.17357 18.6629 10.0452 3 
5.73935 17.2261 11.4818 3 
5.73951 20.0983 11.4822 3 
8.60808 17.227 8.6081 3 
11.4794 17.2267 8.60844 3 
8.60904 20.0996 8.60916 3 
11.481 20.0995 8.60961 3 
10.0412 18.6648 10.0419 3 
8.60673 17.2268 11.4792 3 
11.47 17.2298 11.4716 3 
8.60764 20.0999 11.4804 3 
11.4742 20.1044 11.4759 3 
14.353 17.2248 8.6119 3 
14.3547 20.0974 8.61219 3 
12.9143 18.6641 10.0433 3 
15.7901 18.6599 10.0483 3 
14.3455 17.2257 11.4756 3 
14.3506 20.1019 11.479 3 
17.2266 17.2228 8.61455 3 
20.1001 17.2248 8.61192 3 
17.2265 20.0962 8.61344 3 
20.0984 20.0975 8.61218 3 
18.663 18.6599 10.0483 3 
17.2265 17.2166 11.4825 3 
20.1075 17.2257 11.4756 3 
17.2265 20.098 11.4826 3 
20.1024 20.102 11.4789 3 
22.9736 17.2267 8.60842 3 
22.9721 20.0996 8.60958 3 
21.5388 18.6642 10.0432 3 
22.9829 17.2298 11.4715 3 
22.9787 20.1045 11.4758 3 
24.4117 18.6649 10.0419 3 
25.8449 17.227 8.60805 3 
25.8439 20.0997 8.6091 3 
27.2793 18.663 10.0451 3 
25.8461 17.2268 11.4791 3 
25.8453 20.1 11.4803 3 
2.87048 22.97 8.61133 3 
0.000692286 22.9703 8.61101 3 
1.43579 21.5342 10.0468 3 
1.43558 24.4056 10.0469 3 
2.87047 22.9698 11.4827 3 
0.00109162 22.9702 11.4824 3 
5.74026 22.9702 8.61102 3 
4.30511 21.5342 10.0468 3 
7.1743 21.5349 10.0459 3 
4.3054 24.4056 10.0469 3 
7.17543 24.4058 10.0466 3 
5.73984 22.97 11.4825 3 
8.61047 22.9708 8.61038 3 
11.4827 22.9702 8.61116 3 
10.0467 24.4057 10.0468 3 
10.0435 21.5367 10.0442 3 
8.60942 22.9706 11.4819 3 
11.4811 22.9701 11.4824 3 
14.3553 22.9688 8.61262 3 
12.9171 21.5355 10.0457 3 
15.7908 21.5332 10.0481 3 
12.9192 24.4043 10.0483 3 
15.7909 24.4032 10.0494 3 
14.3548 22.9675 11.4851 3 
17.2265 22.9683 8.61315 3 
20.0977 22.969 8.6126 3 
20.0981 22.9677 11.485 3 
17.2264 22.9664 11.4863 3 
18.6622 21.5333 10.0481 3 
18.6619 24.4033 10.0494 3 
22.9703 22.9704 8.61111 3 
22.9717 22.9703 11.4824 3 
24.4094 21.5369 10.0441 3 
21.5336 24.4045 10.0482 3 
24.4062 24.4059 10.0468 3 
21.5358 21.5357 10.0456 3 
25.8425 22.9711 8.61032 3 
27.2786 21.5351 10.0458 3 
27.2775 24.406 10.0466 3 
25.8435 22.9708 11.4818 3 
2.87063 28.7115 8.61104 3 
2.87052 25.841 8.61136 3 
4.52022e-05 25.8412 8.6113 3 
0.000759318 25.8416 11.4822 3 
0.000238444 28.712 11.4821 3 
2.87062 28.7118 11.4822 3 
1.43543 27.2765 10.0466 3 
2.87054 25.8412 11.4825 3 
5.74142 28.7115 8.61109 3 
5.74098 25.8411 8.6113 3 
5.74089 28.7119 11.4822 3 
4.30572 27.2765 10.0467 3 
7.17621 27.2767 10.0465 3 
5.74026 25.8415 11.4822 3 
8.61272 28.7113 8.61145 3 
11.4843 28.711 8.61216 3 
8.61206 25.8409 8.61149 3 
11.4839 25.8402 8.61234 3 
11.4837 28.7115 11.4831 3 
10.0478 27.2764 10.047 3 
8.61038 25.8422 11.4816 3 
11.4826 25.8416 11.4822 3 
8.61194 28.712 11.4824 3 
14.3555 28.7107 8.61273 3 
14.3555 25.8394 8.61317 3 
12.9197 27.2756 10.048 3 
15.7909 27.2752 10.0485 3 
14.3551 25.8402 11.4836 3 
14.3553 28.7109 11.4839 3 
17.2263 28.7106 8.61291 3 
20.0973 28.711 11.4838 3 
20.0972 28.7108 8.6127 3 
17.2264 25.8392 8.61348 3 
20.0973 25.8396 8.61315 3 
20.0976 25.8403 11.4836 3 
18.6617 27.2753 10.0485 3 
17.2263 25.8397 11.4842 3 
17.2263 28.7108 11.4842 3 
22.9685 28.7111 8.61212 3 
22.9689 25.8404 8.61229 3 
22.9702 25.8417 11.4821 3 
24.4051 27.2766 10.0469 3 
21.5331 27.2758 10.0479 3 
22.969 28.7116 11.483 3 
28.7117 28.7116 8.61108 3 
25.8402 28.7115 8.61144 3 
25.8409 25.8412 8.61145 3 
25.8425 25.8424 11.4815 3 
27.2768 27.2769 10.0465 3 
1.43549 1.43491 12.918 3 
2.87062 2.86978 14.3541 3 
0.000299251 2.86979 14.3541 3 
1.43557 1.43534 15.7901 3 
0.000584106 0.000522701 14.3538 3 
2.87058 0.000186951 14.354 3 
4.30571 1.43488 12.9181 3 
7.17635 1.43499 12.9182 3 
5.74087 2.86981 14.3542 3 
4.30563 1.43533 15.7901 3 
7.17612 1.43547 15.7901 3 
5.7405 0.000420548 14.3539 3 
10.0478 1.43485 12.9186 3 
8.61129 0.000562137 14.3539 3 
11.4834 2.86993 14.3546 3 
10.0475 1.43526 15.7903 3 
8.61186 2.86986 14.3543 3 
12.9194 1.43448 12.9193 3 
15.7908 1.43428 12.9198 3 
12.9192 1.43476 15.7907 3 
15.7907 1.43437 15.7911 3 
14.3549 2.86998 14.3551 3 
18.6618 1.43432 12.9198 3 
18.662 1.43437 15.7911 3 
20.0977 2.86999 14.3549 3 
17.2263 2.87001 14.3553 3 
21.5332 1.43459 12.9191 3 
24.4051 1.43493 12.9184 3 
21.5336 1.43479 15.7905 3 
24.4054 1.43531 15.7901 3 
22.9696 4.06024e-05 14.3543 3 
22.9694 2.86991 14.3544 3 
27.2767 1.43503 12.918 3 
25.8411 2.86979 14.3542 3 
27.2769 1.43548 15.79 3 
25.8416 0.000688919 14.3537 3 
1.43567 4.30423 12.918 3 
1.43611 7.17416 12.9179 3 
2.8706 5.7394 14.3542 3 
0.00103665 5.73891 14.3541 3 
1.43564 4.30465 15.7903 3 
1.43599 7.1746 15.7904 3 
4.30556 4.30427 12.918 3 
7.17591 4.30415 12.9181 3 
4.30499 7.17426 12.9179 3 
7.17391 7.17306 12.9175 3 
5.74007 5.73908 14.3542 3 
4.30555 4.3047 15.7903 3 
7.17597 4.30461 15.7904 3 
4.30507 7.17471 15.7904 3 
7.17425 7.1737 15.7905 3 
10.0472 4.30433 12.9182 3 
10.0443 7.17253 12.9167 3 
8.61051 5.73883 14.3541 3 
10.0472 4.3049 15.7904 3 
10.0449 7.17355 15.7902 3 
11.4821 5.73961 14.3539 3 
12.9189 4.3049 12.9186 3 
15.7905 4.30527 12.9192 3 
12.9168 7.17393 12.9164 3 
15.7902 7.17559 12.918 3 
12.9189 4.30554 15.7903 3 
15.7904 4.30599 15.7903 3 
12.9171 7.17536 15.7895 3 
15.7897 7.17733 15.7891 3 
14.3541 5.74081 14.3541 3 
18.662 4.30526 12.9192 3 
18.6624 7.17553 12.918 3 
17.2263 5.74128 14.3545 3 
18.6622 4.30594 15.7903 3 
18.6631 7.17723 15.789 3 
20.0986 5.74068 14.354 3 
21.5338 4.30482 12.9185 3 
24.4057 4.30425 12.9181 3 
21.536 7.17372 12.9164 3 
24.4086 7.17227 12.9166 3 
21.5339 4.30538 15.7902 3 
24.4056 4.30473 15.7903 3 
21.5357 7.17506 15.7895 3 
24.408 7.17319 15.7901 3 
22.9707 5.73937 14.3538 3 
27.2772 4.30403 12.918 3 
27.2792 7.17282 12.9174 3 
25.8425 5.73858 14.354 3 
27.2771 4.30445 15.7903 3 
27.2788 7.17339 15.7904 3 
1.43626 10.0453 12.9176 3 
0.00184374 11.4808 14.3535 3 
2.8705 8.61009 14.3541 3 
1.43606 10.0458 15.7902 3 
2.87041 11.4818 14.3539 3 
0.00193793 8.60912 14.3539 3 
4.30468 10.0455 12.9176 3 
7.17228 10.0433 12.9165 3 
5.73899 11.481 14.3536 3 
5.73904 8.60929 14.354 3 
4.30484 10.0459 15.7902 3 
7.17294 10.0442 15.7902 3 
10.0377 10.038 12.9133 3 
11.4657 11.4673 14.3482 3 
8.6054 11.4775 14.3522 3 
8.60714 8.60692 14.3534 3 
11.4778 8.60674 14.3521 3 
10.0394 10.04 15.7902 3 
12.9094 10.0375 12.909 3 
15.7907 10.0447 12.916 3 
14.3513 8.60984 14.3513 3 
12.9111 10.0411 15.7881 3 
15.786 10.0474 15.7854 3 
14.3385 11.4698 14.3392 3 
18.6622 10.0446 12.9159 3 
18.6669 10.0473 15.7854 3 
17.2264 8.61209 14.3534 3 
17.2265 11.4854 14.3544 3 
20.1144 11.4696 14.3391 3 
20.1015 8.60963 14.3512 3 
21.5434 10.0372 12.9089 3 
24.4153 10.0377 12.9133 3 
22.9872 11.4669 14.3481 3 
21.5419 10.0408 15.788 3 
24.4136 10.0396 15.7901 3 
22.975 8.60638 14.352 3 
27.2807 10.0431 12.9164 3 
27.28 10.0439 15.7902 3 
25.8459 8.60658 14.3534 3 
25.8475 11.4772 14.3521 3 
1.43599 12.9175 12.9176 3 
1.43571 15.7898 12.918 3 
1.4357 12.9178 15.79 3 
1.43539 15.79 15.7901 3 
2.87036 14.3539 14.354 3 
0.001069 14.3533 14.3535 3 
4.30483 12.9175 12.9177 3 
7.17258 12.9158 12.916 3 
4.30504 15.7898 12.9181 3 
7.1736 15.7894 12.9168 3 
4.30502 12.9179 15.79 3 
7.17359 12.9166 15.7897 3 
4.3053 15.79 15.7902 3 
7.17484 15.7894 15.7897 3 
5.73968 14.3534 14.3536 3 
10.035 12.9093 12.9095 3 
10.0385 15.7885 12.9121 3 
10.0385 12.9119 15.7888 3 
10.0418 15.7873 15.7876 3 
11.4665 14.3412 14.3414 3 
8.60715 14.3512 14.3514 3 
12.8757 12.8782 12.8784 3 
15.8011 12.9133 12.9137 3 
12.8875 15.7888 12.8925 3 
15.7598 15.7677 12.909 3 
12.8875 12.8922 15.789 3 
15.7598 12.9086 15.7679 3 
12.8839 15.7801 15.7804 3 
15.3889 15.64 15.6401 5 
14.2514 14.2566 14.2569 3 
18.6519 12.9132 12.9137 3 
18.6932 15.7677 12.9089 3 
20.2017 14.2565 14.2568 3 
18.6933 12.9085 15.7679 3 
19.0643 15.6399 15.64 5 
17.2265 14.4056 14.406 5 
21.5772 12.878 12.8784 3 
24.4178 12.9091 12.9094 3 
21.5655 15.7887 12.8924 3 
24.4144 15.7884 12.912 3 
22.9864 14.341 14.3413 3 
21.5655 12.892 15.7889 3 
24.4144 12.9116 15.7886 3 
21.5691 15.78 15.7802 3 
24.4111 15.7872 15.7874 3 
27.2802 12.9157 12.9159 3 
27.2792 15.7894 12.9166 3 
25.8457 14.351 14.3512 3 
27.2792 12.9164 15.7895 3 
27.2779 15.7894 15.7895 3 
1.43568 18.662 12.9184 3 
2.87037 17.2259 14.3544 3 
1.43546 18.662 15.7904 3 
2.87039 20.0979 14.3546 3 
0.000775482 17.2258 14.354 3 
0.00106038 20.0981 14.3543 3 
4.30509 18.662 12.9185 3 
7.17383 18.6624 12.9175 3 
5.73996 17.2258 14.3541 3 
4.30528 18.662 15.7905 3 
7.17464 18.6621 15.7904 3 
5.73974 20.098 14.3545 3 
10.04 18.6647 12.9143 3 
8.60834 17.2258 14.3526 3 
11.4761 20.098 14.3545 3 
8.60811 20.0986 14.3539 3 
10.0425 18.662 15.7904 3 
11.472 17.2284 14.3463 3 
14.3097 17.2583 14.3046 3 
12.8987 18.6765 12.9017 3 
15.7813 18.6713 12.9079 3 
12.9103 18.6564 15.796 3 
15.8041 18.6249 15.8275 5 
14.3532 20.0899 14.3626 3 
18.6717 18.6714 12.9079 3 
20.0997 20.09 14.3625 3 
17.2265 20.0803 14.3722 3 
18.6489 18.6249 15.8274 5 
20.1432 17.2582 14.3045 3 
17.2265 17.2214 14.252 5 
21.5542 18.6765 12.9016 3 
24.4129 18.6648 12.9142 3 
22.9809 17.2284 14.3461 3 
21.5426 18.6565 15.7958 3 
24.4104 18.6621 15.7902 3 
22.9767 20.0981 14.3543 3 
27.279 18.6624 12.9174 3 
25.8445 17.2259 14.3525 3 
27.2781 18.6622 15.7902 3 
25.8447 20.0987 14.3537 3 
1.4358 21.534 12.9185 3 
1.43583 24.4058 12.9183 3 
1.4357 21.5341 15.7904 3 
1.43595 24.4061 15.7901 3 
2.87046 22.9699 14.3544 3 
0.00136552 22.9705 14.354 3 
4.30507 21.5339 12.9186 3 
7.17402 21.5344 12.9181 3 
4.30515 24.4057 12.9183 3 
7.17426 24.4067 12.9175 3 
4.30508 21.5341 15.7905 3 
7.17385 21.535 15.7901 3 
4.30501 24.406 15.7902 3 
7.17359 24.4074 15.7895 3 
5.73954 22.9703 14.3541 3 
10.0429 21.535 12.9175 3 
10.0435 24.4085 12.9157 3 
8.6076 22.9721 14.3526 3 
11.4742 22.9768 14.348 3 
10.04 21.5382 15.7877 3 
10.0412 24.4107 15.7876 3 
12.916 21.5329 12.9196 3 
15.7911 21.5281 12.9244 3 
12.917 24.407 12.9169 3 
15.7906 24.4046 12.9192 3 
12.8987 21.5509 15.7759 3 
15.7812 21.5448 15.7809 3 
15.7899 24.4045 15.7924 3 
14.3505 22.9737 14.3505 3 
12.9142 24.4094 15.7882 3 
18.6621 24.4047 12.9192 3 
18.6617 21.5282 12.9244 3 