ITEM: TIMESTEP
50044
ITEM: NUMBER OF ATOMS
18
ITEM: BOX BOUNDS pp pp pp
0.0000000000000000e+00 2.8712000000000000e+01
0.0000000000000000e+00 2.8712000000000000e+01
0.0000000000000000e+00 2.8712000000000000e+01
ITEM: ATOMS x y z c_cna 
19.9449 5.34436 0.144719 5 
18.7107 7.18204 1.37883 5 
21.5265 7.182 1.53281 5 
19.9449 9.01974 0.144664 5 
21.5357 7.182 24.2962 5 
24.3515 7.18199 24.4503 5 
18.5566 7.18201 27.2752 5 
20.1322 5.75964 25.8718 5 
21.5311 4.34788 27.2706 5 
20.7819 7.18198 28.0196 5 
23.1171 5.34446 25.6845 5 
22.2803 7.18201 26.5214 5 
24.5055 7.18199 27.2659 5 
22.9299 5.75961 28.6693 5 
20.1322 8.60437 25.8718 5 
23.1172 9.01956 25.6845 5 
21.5311 10.0162 27.2705 5 
22.9299 8.60438 28.6692 5 
ITEM: TIMESTEP
50045
ITEM: NUMBER OF ATOMS
18
ITEM: BOX BOUNDS pp pp pp
0.0000000000000000e+00 2.8712000000000000e+01
0.0000000000000000e+00 2.8712000000000000e+01
0.0000000000000000e+00 2.8712000000000000e+01
ITEM: ATOMS x y z c_cna 
19.9449 5.34436 0.144719 5 
18.7107 7.18204 1.37883 5 
21.5265 7.182 1.53281 5 
19.9449 9.01974 0.144664 5 
21.5357 7.182 24.2962 5 
24.3515 7.18199 24.4503 5 
18.5566 7.18201 27.2752 5 
20.1322 5.75964 25.8718 5 
21.5311 4.34788 27.2706 5 
20.7819 7.18198 28.0196 5 
23.1171 5.34446 25.6845 5 
22.2803 7.18201 26.5214 5 
24.5055 7.18199 27.2659 5 
22.9299 5.75961 28.6693 5 
20.1322 8.60437 25.8718 5 
23.1172 9.01956 25.6845 5 
21.5311 10.0162 27.2705 5 
22.9299 8.60438 28.6692 5 
