ITEM: TIMESTEP
50044
ITEM: NUMBER OF ATOMS
2001
ITEM: BOX BOUNDS pp pp pp
0.0000000000000000e+00 2.8712000000000000e+01
0.0000000000000000e+00 2.8712000000000000e+01
0.0000000000000000e+00 2.8712000000000000e+01
ITEM: ATOMS x y z c_cna 
1.43616 1.43639 1.43182 3 
2.8692 2.87474 2.86583 3 
6.44569e-05 2.87261 2.86782 3 
2.87039 0.00217677 2.86693 3 
4.30485 1.43873 1.43027 3 
7.17479 1.43902 1.43013 3 
5.73938 2.87511 2.86545 3 
5.73976 0.00332853 2.86614 3 
10.0444 1.43777 1.43082 3 
8.60968 2.87457 2.86608 3 
11.4787 2.87251 2.86831 3 
8.60918 0.00273411 2.86648 3 
12.9115 1.4335 1.43273 3 
15.7721 1.42135 1.43664 3 
14.3423 2.86512 2.87583 3 
18.6461 1.42213 1.44342 3 
17.1831 2.83133 2.9064 3 
20.0938 2.84306 2.89238 3 
20.0851 2.83945 0.00450258 3 
21.5334 1.42765 1.4386 3 
22.9816 2.8543 2.88312 3 
24.403 1.43171 1.43029 3 
27.2818 1.42975 1.43669 3 
25.838 2.87156 2.86512 3 
25.8559 2.85431 0.00885088 3 
1.43367 4.31014 1.42975 3 
1.43238 7.18204 1.42851 3 
2.86823 5.74655 2.86475 3 
4.30383 4.3108 1.42927 3 
7.17482 4.31067 1.4297 3 
4.30338 7.18211 1.42876 3 
7.17484 7.18217 1.4294 3 
5.73915 5.74656 2.86483 3 
10.0456 4.30986 1.4307 3 
10.0461 7.18215 1.43026 3 
8.61008 5.74639 2.86545 3 
11.4804 5.74602 2.8667 3 
15.7747 4.29413 1.44566 3 
12.9147 4.30704 1.43359 3 
12.917 7.18211 1.43139 3 
15.7904 7.18209 1.43039 3 
14.3497 5.74637 2.86882 3 
18.5616 4.20692 1.52797 3 
19.9449 5.34436 0.144719 5 
18.7107 7.18204 1.37883 5 
17.2183 5.75666 2.87118 3 
20.0727 5.71533 2.8759 3 
17.2136 5.71533 0.0169566 3 
24.395 4.30871 1.42219 3 
21.5633 4.26527 1.48022 3 
21.5265 7.182 1.53281 5 
22.9765 5.73678 2.87689 3 
24.3853 7.182 1.41253 3 
28.7096 5.74628 2.86546 3 
27.2788 4.30611 1.43419 3 
27.275 7.18199 1.43027 3 
25.8332 5.74667 2.86033 3 
25.8497 5.73678 0.00374611 3 
1.43355 10.0539 1.42975 3 
2.86815 8.6176 2.86475 3 
2.86905 11.4894 2.8658 3 
4.30373 10.0534 1.42927 3 
7.17479 10.0536 1.42969 3 
5.73912 8.61769 2.86483 3 
5.73931 11.4891 2.86546 3 
10.0456 10.0544 1.4307 3 
8.61011 8.61794 2.86545 3 
11.4805 8.61826 2.86671 3 
8.60972 11.4897 2.86609 3 
11.4788 11.4917 2.8683 3 
12.9148 10.0572 1.43357 3 
15.7748 10.07 1.44567 3 
14.3497 8.61787 2.86883 3 
14.3424 11.4991 2.87585 3 
18.5617 10.1571 1.52788 3 
17.2184 8.60749 2.87118 3 
20.0728 8.64873 2.87586 3 
17.1832 11.5328 2.90642 3 
20.0939 11.521 2.89231 3 
17.2136 8.64875 0.0169359 3 
19.9449 9.01974 0.144664 5 
20.0851 11.5246 0.00441768 3 
21.5633 10.0988 1.48017 3 
22.9765 8.62722 2.87689 3 
22.9816 11.5098 2.88305 3 
24.3949 10.0553 1.42216 3 
28.7119 11.4915 2.86781 3 
28.7095 8.61775 2.86548 3 
27.2787 10.0579 1.43419 3 
25.8332 8.61734 2.8603 3 
25.8379 11.4925 2.8651 3 
25.8497 8.6272 0.00374774 3 
25.8559 11.5097 0.00882531 3 
1.43601 12.9277 1.4318 3 
1.43633 15.7996 1.43177 3 
2.87023 14.362 2.86691 3 
0.00132985 14.3651 2.86893 3 
4.30541 15.7973 1.43073 3 
4.30472 12.9254 1.43028 3 
7.17473 12.9251 1.43014 3 
7.17471 15.7967 1.43039 3 
5.73965 14.3608 2.86615 3 
10.0445 12.9264 1.43083 3 
10.0437 15.798 1.43063 3 
8.60921 14.3614 2.86648 3 
11.4775 14.3642 2.86802 3 
12.9117 12.9307 1.43273 3 
15.7722 12.9428 1.43665 3 
12.9119 15.8014 1.43134 3 
15.7825 15.8031 1.43258 3 
14.343 14.3708 2.87143 3 
18.6462 12.942 1.44336 3 
18.6562 15.8013 1.43344 3 
17.2144 14.3734 2.87536 3 
20.0936 14.37 2.87271 3 
21.5334 12.9365 1.43849 3 
21.5309 15.8002 1.4321 3 
22.9697 14.3685 2.87042 3 
24.403 12.9324 1.4302 3 
24.4035 15.8004 1.43076 3 
27.2817 12.9343 1.43666 3 
27.277 15.801 1.43204 3 
25.84 14.3656 2.86721 3 
1.43483 18.6689 1.43072 3 
2.87026 17.2333 2.86688 3 
2.86965 20.1032 2.86643 3 
4.30526 18.6681 1.43062 3 
7.1747 18.6677 1.43044 3 
5.73981 17.2323 2.86647 3 
5.7397 20.1029 2.86643 3 
10.044 18.6685 1.43045 3 
8.60902 17.2327 2.86654 3 
11.478 17.2346 2.8672 3 
8.60919 20.1031 2.86647 3 
11.4792 20.1036 2.86672 3 
12.9143 18.6695 1.43074 3 
15.786 18.6695 1.43113 3 
14.3483 17.2362 2.86823 3 
14.3505 20.1038 2.86706 3 
18.6584 18.6688 1.43114 3 
17.2209 17.2359 2.86883 3 
20.0945 17.2349 2.86806 3 
17.2226 20.1037 2.86708 3 
20.0948 20.1035 2.86668 3 
21.5308 18.6685 1.4306 3 
24.4029 18.6688 1.43018 3 
22.9674 17.2347 2.86719 3 
22.9669 20.1034 2.86622 3 
28.7105 20.1035 2.86626 3 
28.7115 17.2343 2.86709 3 
27.2752 18.6691 1.43044 3 
25.8393 17.2346 2.86658 3 
25.8388 20.1035 2.86602 3 
1.43431 21.5381 1.43037 3 
2.86969 22.9729 2.86642 3 
1.43491 24.4073 1.43073 3 
4.3053 24.408 1.43059 3 
4.30499 21.538 1.43046 3 
7.17469 21.538 1.4304 3 
5.73972 22.9731 2.8664 3 
7.17469 24.4083 1.43038 3 
10.0444 21.538 1.43038 3 
8.60917 22.9729 2.86643 3 
11.4792 22.9724 2.86672 3 
10.044 24.4075 1.43041 3 
12.9151 21.538 1.43057 3 
15.7869 21.538 1.43074 3 
14.3504 22.9722 2.86702 3 
12.9142 24.4066 1.43071 3 
15.7859 24.4066 1.4311 3 
18.6589 21.5381 1.43065 3 
17.2225 22.9725 2.86706 3 
20.0948 22.9728 2.86666 3 
18.6584 24.4074 1.43114 3 
21.5308 21.5381 1.43025 3 
24.4027 21.5381 1.42996 3 
22.9669 22.9728 2.86621 3 
24.403 24.4074 1.43019 3 
21.5308 24.4077 1.4306 3 
28.7106 22.9727 2.86625 3 
27.2747 21.5381 1.4301 3 
25.8388 22.9727 2.86602 3 
27.2752 24.4071 1.43045 3 
1.43645 27.2765 1.43179 3 
2.87039 25.8428 2.86689 3 
0.00149559 28.711 2.86898 3 
4.3055 27.2788 1.43072 3 
7.17474 27.2794 1.43035 3 
5.73987 25.8438 2.86642 3 
11.4773 28.712 2.86801 3 
10.0437 27.278 1.4306 3 
8.60899 25.8434 2.8665 3 
11.4779 25.8414 2.86718 3 
14.3428 28.7053 2.87141 3 
12.9117 27.2747 1.43132 3 
15.7823 27.273 1.43256 3 
14.3482 25.8398 2.86819 3 
20.0935 28.7061 2.87273 3 
17.2142 28.7027 2.87533 3 
18.6561 27.2748 1.43343 3 
17.2207 25.8402 2.86878 3 
20.0944 25.8413 2.86803 3 
22.9698 28.7076 2.87048 3 
21.5308 27.276 1.43214 3 
22.9674 25.8415 2.86721 3 
24.4036 27.2757 1.43079 3 
25.8401 28.7105 2.86723 3 
28.7116 25.8418 2.86711 3 
27.2772 27.2752 1.43206 3 
25.8394 25.8416 2.86663 3 
1.43454 1.43816 4.3025 3 
1.43326 1.43949 7.17241 3 
2.86864 2.87532 5.73675 3 
2.86936 0.0033219 5.73767 3 
4.30439 1.43931 4.3016 3 
7.17436 1.43924 4.30173 3 
4.30396 1.43987 7.17251 3 
7.17412 1.4397 7.173 3 
5.73914 2.87541 5.73678 3 
5.7393 0.00376998 5.73751 3 
10.0436 1.43784 4.30321 3 
10.0436 1.4389 7.17444 3 
8.60921 2.87503 5.73756 3 
11.4783 2.87408 5.73962 3 
8.60875 0.00302 5.73837 3 
11.4769 0.000376738 5.74098 3 
12.91 1.43336 4.30768 3 
15.7693 1.41947 4.32019 3 
12.9124 1.43717 7.17705 3 
15.7818 1.43348 7.17944 3 
14.346 2.87231 5.74345 3 
18.6529 1.42138 4.31736 3 
18.6569 1.43361 7.17792 3 
17.2137 2.86515 5.7471 3 
20.0929 2.86674 5.74352 3 
21.5348 1.42563 4.31322 3 
24.4095 1.42979 4.30894 3 
21.5316 1.435 7.17638 3 
24.4046 1.43651 7.17524 3 
22.9692 2.86981 5.74156 3 
28.7094 2.87479 5.73648 3 
27.2751 1.43669 4.30226 3 
27.2753 1.43825 7.17363 3 
25.8407 2.87264 5.73912 3 
28.7107 0.00220397 5.7379 3 
1.43315 4.31076 4.30106 3 
1.43256 7.18205 4.30049 3 
1.43247 4.31112 7.17154 3 
1.43213 7.18207 7.1712 3 
2.86814 5.74663 5.7361 3 
4.30363 7.18211 4.3004 3 
7.17445 4.31089 4.301 3 
4.30386 4.31101 4.30075 3 
7.17448 7.18216 4.30071 3 
4.30352 7.18213 7.17168 3 
4.30365 4.31121 7.17191 3 
7.17419 4.3111 7.17243 3 
5.73903 5.74664 5.73628 3 
7.1742 7.18217 7.17221 3 
10.0445 4.31042 4.30214 3 
10.0449 7.18215 4.30167 3 
10.0441 4.3108 7.17372 3 
8.60943 5.74653 5.737 3 
10.0442 7.18215 7.17346 3 
11.479 5.74634 5.73873 3 
12.9133 4.30979 4.30469 3 
15.7798 4.31021 4.30966 3 
12.9141 7.18214 4.30376 3 
15.7811 7.18213 4.30843 3 
12.9135 4.3103 7.17586 3 
15.7848 4.30984 7.17601 3 
12.9138 7.18214 7.17552 3 
14.3476 5.74613 5.74186 3 
15.7858 7.1821 7.1753 3 
18.6439 4.29413 4.31468 3 
18.6593 7.18206 4.29901 3 
18.6561 4.30707 7.17468 3 
17.2208 5.74638 5.73972 3 
18.6583 7.18203 7.17232 3 
20.0903 5.74162 5.73703 3 
24.407 4.30612 4.30585 3 
21.5308 4.30107 4.30921 3 
21.5217 7.18201 4.30229 3 
24.4031 7.182 4.30211 3 
21.5299 4.30845 7.17292 3 
24.4025 4.31018 7.17266 3 
21.5279 7.18197 7.17029 3 
22.965 5.74554 5.73649 3 
24.4013 7.18198 7.17136 3 
27.2713 7.18201 4.29843 3 
27.274 4.3108 7.17217 3 
27.2726 4.31035 4.29967 3 
28.7083 5.74656 5.73532 3 
25.8383 5.74626 5.73664 3 
27.2733 7.18202 7.17158 3 
1.43302 10.0533 4.30106 3 
1.43234 10.053 7.17151 3 
2.86807 8.61754 5.73611 3 
2.86846 11.4889 5.73672 3 
4.30374 10.0532 4.30074 3 
7.17444 10.0534 4.30102 3 
4.30355 10.0531 7.1719 3 
5.73898 8.61765 5.73627 3 
7.17415 10.0532 7.17241 3 
5.73904 11.4888 5.73675 3 
10.0446 10.0539 4.30215 3 
8.60943 8.61778 5.737 3 
10.0441 10.0535 7.17374 3 
11.479 8.61794 5.73877 3 
8.60922 11.4892 5.73755 3 
11.4784 11.4901 5.73966 3 
12.9134 10.0544 4.30473 3 
15.7799 10.054 4.30971 3 
12.9136 10.0539 7.17593 3 
14.3476 8.61811 5.7419 3 
15.7849 10.0543 7.17606 3 
14.3461 11.4919 5.74353 3 
18.6441 10.07 4.3147 3 
17.2208 8.61778 5.73975 3 
18.6562 10.057 7.17472 3 
20.0903 8.6224 5.73706 3 
17.2139 11.499 5.74719 3 
20.093 11.4973 5.74354 3 
21.5308 10.063 4.30918 3 
24.407 10.0579 4.30581 3 
21.5299 10.0555 7.17294 3 
22.965 8.61843 5.73649 3 
22.9692 11.4942 5.74154 3 
24.4025 10.0538 7.17263 3 
28.7093 11.4893 5.73645 3 
27.2725 10.0537 4.29966 3 
28.7082 8.61753 5.73531 3 
25.8383 8.61774 5.73662 3 
27.2739 10.0533 7.17213 3 
25.8406 11.4914 5.73909 3 
1.43436 12.926 4.30245 3 
1.43499 15.7982 4.30308 3 
1.43307 12.9247 7.17239 3 
1.43376 15.7966 7.17322 3 
2.86918 14.3608 5.73765 3 
4.30379 12.9243 7.17248 3 
4.30424 12.9248 4.30157 3 
4.30473 15.7967 4.30226 3 
7.1743 12.9249 4.30171 3 
7.17423 15.7965 4.30222 3 
4.30412 15.7959 7.17313 3 
7.17407 12.9245 7.17297 3 
5.73918 14.3603 5.73747 3 
7.17395 15.7961 7.17359 3 
10.0437 12.9263 4.30323 3 
10.0432 15.7981 4.30322 3 
10.0437 12.9253 7.17445 3 
8.60877 14.3611 5.73833 3 
10.0431 15.7976 7.17514 3 
11.477 14.3638 5.74099 3 
12.9101 12.9308 4.30772 3 
15.7695 12.9446 4.32025 3 
12.9111 15.8019 4.30556 3 
15.7817 15.8043 4.30804 3 
12.9125 12.927 7.17708 3 
15.782 12.9307 7.17951 3 
12.9118 15.8007 7.17799 3 
14.3431 14.3701 5.74669 3 
15.7843 15.8018 7.1787 3 
18.6531 12.9427 4.3174 3 
18.6571 15.803 4.3072 3 
18.657 12.9305 7.17797 3 
17.2183 14.3707 5.74675 3 
18.6584 15.8013 7.17785 3 
20.0952 14.369 5.74472 3 
21.5349 12.9385 4.31317 3 
21.5318 15.8018 4.30565 3 
24.4094 12.9343 4.30891 3 
24.4048 15.8009 4.30433 3 
21.5318 12.9291 7.17639 3 
21.532 15.8005 7.17674 3 
22.9698 14.3673 5.74286 3 
24.4045 12.9276 7.17524 3 
24.4046 15.7995 7.17566 3 
27.275 12.9274 4.30224 3 
27.2755 15.7992 4.30277 3 
28.7106 14.3619 5.73789 3 
27.2752 12.9259 7.17365 3 
25.8417 14.365 5.74062 3 
27.2757 15.7981 7.17442 3 
1.43425 18.6683 4.30238 3 
1.43381 18.6676 7.17332 3 
2.86947 17.2324 5.73804 3 
2.8692 20.1029 5.73785 3 
4.30468 18.6677 4.30233 3 
7.17424 18.6676 4.30238 3 
4.30426 18.6672 7.17341 3 
5.73932 17.2319 5.73794 3 
7.17398 18.6673 7.17384 3 
5.73929 20.1028 5.73803 3 
10.0436 18.6686 4.30284 3 
8.60865 17.2325 5.73853 3 
10.0435 18.6683 7.17478 3 
11.4777 17.2346 5.73998 3 
8.60885 20.103 5.73844 3 
11.4789 20.1036 5.73907 3 
12.9138 18.6697 4.30363 3 
15.7857 18.6699 4.3041 3 
12.914 18.6694 7.17583 3 
14.3482 17.2364 5.7416 3 
15.7862 18.6697 7.17598 3 
14.3503 20.1039 5.73947 3 
18.6585 18.6695 4.30369 3 
17.2215 17.2362 5.74143 3 
18.6589 18.6695 7.17549 3 
20.0951 17.2355 5.74055 3 
17.2227 20.1038 5.73929 3 
20.0951 20.1037 5.73878 3 
24.4032 18.6691 4.30248 3 
21.5311 18.6692 4.30304 3 
21.5315 18.6692 7.17484 3 
22.9679 17.235 5.73966 3 
22.9672 20.1036 5.73827 3 
24.4035 18.6688 7.17426 3 
27.2749 18.6688 4.30216 3 
28.7103 20.1032 5.73773 3 
28.7106 17.2332 5.73805 3 
25.8398 17.2343 5.73884 3 
27.275 18.6683 7.17373 3 
25.839 20.1034 5.73793 3 
1.43395 21.5381 4.30207 3 
1.43437 24.4078 4.30239 3 
1.43376 21.538 7.17325 3 
2.86925 22.9732 5.73787 3 
1.43392 24.4085 7.17334 3 
4.30451 21.538 4.30223 3 
7.17425 21.538 4.30235 3 
7.17423 24.4084 4.30234 3 
4.30476 24.4083 4.30233 3 
4.3042 21.538 7.17342 3 
7.17401 21.538 7.17387 3 
5.73931 22.9733 5.73803 3 
7.174 24.4087 7.17386 3 
4.3043 24.4088 7.17345 3 
10.044 21.538 4.30264 3 
10.0435 24.4075 4.30283 3 
10.0439 21.538 7.17452 3 
8.60884 22.973 5.73842 3 
10.0435 24.4077 7.17479 3 
11.4789 22.9724 5.73906 3 
12.9147 21.538 4.30302 3 
15.7866 21.538 4.30314 3 
12.9137 24.4063 4.3036 3 
15.7856 24.4061 4.30404 3 
12.9148 21.538 7.17504 3 
15.7867 21.5381 7.17501 3 
14.3503 22.9722 5.73944 3 
15.7861 24.4064 7.17593 3 
12.9139 24.4066 7.17582 3 
18.6588 21.5381 4.30282 3 
18.6584 24.4067 4.30365 3 
18.6591 21.5381 7.17464 3 
17.2226 22.9723 5.73924 3 
20.0951 22.9725 5.73875 3 
18.6588 24.4067 7.17542 3 
21.531 21.5381 4.30235 3 
24.4029 21.5381 4.302 3 
21.5311 24.407 4.303 3 
24.4033 24.4071 4.3025 3 
21.5313 21.5381 7.17412 3 
22.9672 22.9726 5.73827 3 
24.4036 24.4074 7.17423 3 
24.4032 21.5381 7.1737 3 
21.5314 24.4071 7.17479 3 
27.2746 21.5381 4.3019 3 
27.2749 24.4074 4.3022 3 
28.7104 22.973 5.73775 3 
27.2748 21.5381 7.1734 3 
25.839 22.9727 5.73792 3 
27.2751 24.4079 7.17371 3 
1.43518 27.2779 4.3031 3 
1.43394 27.2796 7.17324 3 
2.86961 25.8437 5.73806 3 
4.30487 27.2794 4.30228 3 
7.17426 27.2796 4.30224 3 
4.30427 27.2802 7.17318 3 
5.73938 25.8442 5.73798 3 
7.17399 27.28 7.17365 3 
10.0431 27.2779 4.30323 3 
8.60862 25.8435 5.73856 3 
10.0431 27.2785 7.17516 3 
11.4776 25.8415 5.73997 3 
12.9109 27.2742 4.30551 3 
15.7815 27.2718 4.30802 3 
14.3429 28.7061 5.74663 3 
12.9116 27.2754 7.17797 3 
14.3481 25.8397 5.74154 3 
15.784 27.2743 7.17864 3 
20.095 28.7071 5.74469 3 
18.657 27.2731 4.30714 3 
17.2181 28.7054 5.7467 3 
17.2214 25.8399 5.74138 3 
18.6582 27.2748 7.17778 3 
20.095 25.8407 5.74051 3 
22.9698 28.7089 5.74286 3 
21.5318 27.2744 4.30564 3 
24.4049 27.2752 4.30434 3 
21.5319 27.2757 7.17669 3 
22.9679 25.8412 5.73963 3 
24.4046 27.2767 7.17565 3 
25.8418 28.7111 5.74063 3 
28.7108 25.843 5.73806 3 
27.2756 27.277 4.3028 3 
25.8399 25.8419 5.73883 3 
27.2759 27.278 7.1744 3 
2.86828 2.8757 8.60743 3 
1.4333 1.43999 10.0431 3 
2.86866 2.8758 11.4782 3 
2.86878 0.00419933 8.60804 3 
2.86906 0.00448571 11.4785 3 
5.73903 2.87571 8.60785 3 
5.73914 0.00432235 8.60838 3 
4.30393 1.44023 10.0432 3 
7.17435 1.44013 10.0439 3 
5.73941 2.87588 11.4786 3 
5.73951 0.00465255 11.4788 3 
8.60923 2.87546 8.60877 3 
11.4791 2.87491 8.61029 3 
11.4785 0.00258949 8.61103 3 
8.60899 0.00384047 8.60935 3 
11.4802 0.00396815 11.4805 3 
10.0445 1.4397 10.045 3 
8.60992 2.87578 11.4795 3 
11.4806 2.87555 11.4802 3 
8.60976 0.00445544 11.4797 3 
14.3498 2.87419 8.61105 3 
14.3486 0.000518346 8.6126 3 
12.915 1.43904 10.0458 3 
15.7863 1.4381 10.0458 3 
14.3519 2.87522 11.4802 3 
14.3512 0.00331278 11.4807 3 
17.2213 2.87265 8.61067 3 
20.0944 2.87293 8.60928 3 
17.2231 0.00307771 11.4803 3 
18.6587 1.43799 10.0451 3 
17.2235 2.87481 11.4797 3 
20.0952 2.87474 11.4791 3 
17.2215 0.000143837 8.61215 3 
20.095 0.000688052 8.61115 3 
20.0952 0.00313916 11.4798 3 
22.9669 2.87396 8.60857 3 
22.9678 0.00145742 8.61034 3 
22.9672 0.00336102 11.4793 3 
21.5311 1.43841 10.0444 3 
22.9668 2.87501 11.4787 3 
24.403 1.43897 10.0439 3 
28.7096 2.87539 8.6077 3 
28.7096 2.8756 11.4783 3 
25.8386 2.87487 8.60825 3 
27.2744 1.43954 10.0435 3 
25.8382 2.87534 11.4785 3 
28.7102 0.00405427 11.4786 3 
28.7104 0.00346345 8.60858 3 
25.8397 0.00238207 8.60954 3 
25.8389 0.0036613 11.4789 3 
2.86797 5.74673 8.60705 3 
1.43279 4.31125 10.0427 3 
1.43258 7.18211 10.0426 3 
2.86844 5.74675 11.4781 3 
5.73895 5.74673 8.60754 3 
4.30362 7.18216 10.0427 3 
7.17438 4.31128 10.0435 3 
4.3037 4.31134 10.0428 3 
7.17437 7.18216 10.0434 3 
5.73935 5.74678 11.4785 3 
8.60934 5.74665 8.60845 3 
11.4794 5.74649 8.60986 3 
10.0447 4.31111 10.0446 3 
10.0448 7.18214 10.0445 3 
8.60998 5.74674 11.4793 3 
11.4809 5.74666 11.48 3 
14.3507 5.74636 8.61029 3 
15.7873 4.31053 10.0448 3 
12.9156 4.31087 10.0452 3 
12.9159 7.1821 10.0451 3 
15.7878 7.18209 10.0445 3 
14.3524 5.74657 11.4799 3 
17.2229 5.74602 8.6089 3 
20.094 5.74538 8.60717 3 
18.6589 4.30996 10.0438 3 
18.6594 7.182 10.0432 3 
17.2241 5.74638 11.4793 3 
20.0953 5.74622 11.4786 3 
22.9654 5.74629 8.60663 3 
21.5305 4.31025 10.043 3 
21.5301 7.18196 10.0423 3 
22.9663 5.74637 11.4782 3 
24.4015 7.18199 10.0424 3 
24.402 4.31087 10.0428 3 
28.709 5.74664 8.60715 3 
25.8376 5.74656 8.60721 3 
28.7092 5.74667 11.4781 3 
27.2736 4.31111 10.0429 3 
27.2732 7.18204 10.0427 3 
25.8376 5.74654 11.4782 3 
2.86792 8.61751 8.60703 3 
2.86812 11.4885 8.6074 3 
1.43269 10.0529 10.0427 3 
2.8684 8.61752 11.4781 3 
2.86855 11.4884 11.4782 3 
5.73893 8.61759 8.60751 3 
5.73895 11.4886 8.60783 3 
4.30363 10.0529 10.0428 3 
7.17436 10.0531 10.0435 3 
5.73935 8.61755 11.4785 3 
5.73936 11.4884 11.4786 3 
8.60933 8.61768 8.60845 3 
11.4795 8.61776 8.6099 3 
8.60922 11.4888 8.60878 3 
11.4792 11.4893 8.61034 3 
10.0448 10.0532 10.0446 3 
8.60999 8.61758 11.4793 3 
11.4809 8.61758 11.48 3 
8.60991 11.4885 11.4795 3 
11.4807 11.4887 11.4802 3 
14.3507 8.61786 8.61034 3 
14.35 11.49 8.61111 3 
12.9157 10.0534 10.0453 3 
15.7874 10.0536 10.0448 3 
14.3525 8.61761 11.4799 3 
14.352 11.489 11.4802 3 
17.2229 8.61811 8.60891 3 
20.094 8.61862 8.60721 3 
17.2214 11.4915 8.6107 3 
20.0945 11.4911 8.6093 3 
18.659 10.0541 10.0438 3 
17.2242 8.61771 11.4793 3 
20.0953 8.61777 11.4786 3 
17.2236 11.4893 11.4798 3 
20.0953 11.4893 11.4791 3 
22.9654 8.61766 8.60662 3 
22.967 11.4901 8.60859 3 
21.5306 10.0537 10.043 3 
22.9663 8.61755 11.4782 3 
22.9668 11.489 11.4787 3 
24.402 10.0531 10.0428 3 
28.7095 11.4887 8.6077 3 
28.7089 8.61749 8.60715 3 
28.7095 11.4885 11.4783 3 
25.8375 8.61747 8.60718 3 
25.8385 11.4892 8.60823 3 
28.7091 8.61748 11.4781 3 
27.2735 10.053 10.0429 3 
25.8376 8.61746 11.4782 3 
25.8381 11.4887 11.4785 3 
2.86862 14.36 8.60803 3 
1.43313 12.9242 10.0431 3 
1.43369 15.7958 10.0437 3 
2.86892 14.3597 11.4785 3 
4.30379 12.924 10.0432 3 
5.73901 14.3599 8.60834 3 
4.30407 15.7954 10.0436 3 
7.17431 12.9241 10.0438 3 
7.17423 15.7955 10.0443 3 
5.73942 14.3595 11.4789 3 
8.60898 14.3604 8.60932 3 
11.4786 14.3616 8.61104 3 
10.0445 12.9246 10.0449 3 
10.0442 15.7962 10.0454 3 
8.60975 14.3597 11.4797 3 
11.4803 14.3602 11.4805 3 
14.3487 14.3636 8.61265 3 
12.9151 12.9252 10.0458 3 
15.7865 12.9261 10.0459 3 
12.9146 15.7974 10.0465 3 
15.7866 15.7979 10.0465 3 
14.3514 14.3609 11.4808 3 
17.2218 14.364 8.6122 3 
20.0952 14.3634 8.61122 3 
18.6589 12.9261 10.0451 3 
18.6591 15.7979 10.046 3 
17.2233 14.3611 11.4804 3 
20.0953 14.361 11.4799 3 
22.9679 14.3627 8.61038 3 
21.5312 12.9257 10.0444 3 
21.5315 15.7975 10.0454 3 
22.9672 14.3608 11.4794 3 
24.4035 15.7971 10.0448 3 
24.403 12.9251 10.044 3 
28.7103 14.3607 8.60861 3 
28.7101 14.3601 11.4786 3 
25.8396 14.3618 8.60958 3 
27.2743 12.9246 10.0436 3 
27.2749 15.7965 10.0442 3 
25.8388 14.3605 11.479 3 
2.86899 17.2315 8.60852 3 
2.86906 20.1026 8.60862 3 
1.43393 18.6672 10.0438 3 
2.86929 17.2312 11.4787 3 
2.86942 20.1025 11.4788 3 
5.73912 17.2313 8.60882 3 
5.73918 20.1025 8.60898 3 
4.30427 18.6668 10.0439 3 
7.17421 18.6669 10.0445 3 
5.73952 17.231 11.4791 3 
5.73961 20.1024 11.4792 3 
8.60876 17.232 8.60978 3 
11.4784 17.2335 8.61134 3 
8.60891 20.1028 8.60975 3 
11.4792 20.1033 8.61057 3 
10.0441 18.6676 10.0456 3 
8.60958 17.2312 11.48 3 
11.4799 17.2319 11.4808 3 
8.60956 20.1025 11.4801 3 
11.48 20.1027 11.4807 3 
14.3498 17.2345 8.61207 3 
14.3508 20.1036 8.61083 3 
12.915 18.6682 10.0462 3 
15.787 18.6685 10.0462 3 
14.3513 17.2323 11.481 3 
14.3514 20.1029 11.4808 3 
17.2226 17.2345 8.61178 3 
20.0954 17.2342 8.61112 3 
17.223 20.1036 8.6106 3 
20.0953 20.1035 8.61009 3 
18.6593 18.6684 10.0458 3 
17.2233 17.2325 11.4807 3 
20.0954 17.2325 11.4802 3 
17.2233 20.1031 11.4806 3 
20.0953 20.1031 11.4801 3 
22.9678 17.2338 8.61042 3 
22.9674 20.1034 8.60958 3 
21.5315 18.6683 10.0452 3 
22.9673 17.2323 11.4797 3 
22.9673 20.1031 11.4796 3 
24.4034 18.668 10.0447 3 
28.7104 20.1029 8.60877 3 
28.7106 20.1027 11.4788 3 
28.7106 17.2323 8.609 3 
25.8396 17.2332 8.60973 3 
25.8392 20.1032 8.60914 3 
28.7105 17.2317 11.4789 3 
27.2749 18.6677 10.0442 3 
25.8391 17.2321 11.4793 3 
25.8391 20.1029 11.4792 3 
2.86909 22.9734 8.60864 3 
1.43399 24.4089 10.0438 3 
1.43394 21.538 10.0438 3 
2.86943 22.9735 11.4788 3 
4.30432 21.538 10.0439 3 
5.73918 22.9735 8.60901 3 
4.30431 24.4092 10.0439 3 
7.17422 24.4091 10.0446 3 
7.17425 21.538 10.0446 3 
5.73961 22.9736 11.4792 3 
8.60891 22.9732 8.60976 3 
11.4792 22.9727 8.61056 3 
10.0441 24.4084 10.0456 3 
10.0443 21.538 10.0454 3 
8.60955 22.9735 11.4801 3 
11.48 22.9733 11.4807 3 
14.3507 22.9725 8.61081 3 
15.7869 24.4077 10.0461 3 
12.915 24.4078 10.0462 3 
14.3513 22.9731 11.4808 3 
12.9153 21.538 10.0458 3 
15.7871 21.5381 10.0458 3 
17.223 22.9726 8.61054 3 
20.0953 22.9727 8.61005 3 
18.6592 24.4078 10.0457 3 
18.6593 21.5381 10.0454 3 
17.2232 22.9731 11.4805 3 
20.0953 22.9732 11.4801 3 
22.9674 22.9729 8.60954 3 
22.9673 22.9733 11.4796 3 
24.4033 21.5381 10.0444 3 
24.4034 24.4082 10.0447 3 
21.5314 21.5382 10.0449 3 
21.5314 24.408 10.0452 3 
28.7105 22.9732 8.60875 3 
25.8392 22.973 8.60911 3 
27.275 24.4085 10.0442 3 
27.2749 21.5381 10.044 3 
25.8391 22.9733 11.4792 3 
28.7106 22.9734 11.4788 3 
2.86911 25.8446 8.60855 3 
1.43383 27.2804 10.0436 3 
2.86939 25.8449 11.4787 3 
5.73917 25.8447 8.60887 3 
7.17429 27.2806 10.0443 3 
5.73959 25.8451 11.4791 3 
4.3042 27.2808 10.0436 3 
8.60878 25.8441 8.6098 3 
11.4783 25.8425 8.61135 3 
10.0441 27.2799 10.0454 3 
8.60958 25.8448 11.48 3 
11.4799 25.8442 11.4808 3 
14.3497 25.8416 8.61204 3 
12.9145 27.2787 10.0465 3 
15.7864 27.2782 10.0465 3 
14.3511 25.8438 11.481 3 
17.2224 25.8416 8.61172 3 
20.0953 25.842 8.61103 3 
20.0952 25.8438 11.4802 3 
18.659 27.2783 10.0459 3 
17.2231 25.8437 11.4806 3 
22.9678 25.8425 8.61035 3 
22.9673 25.8439 11.4797 3 
24.4035 27.2791 10.0447 3 
21.5314 27.2787 10.0453 3 
28.7106 25.8445 11.4788 3 
28.7107 25.8438 8.60896 3 
25.8397 25.843 8.60967 3 
25.8392 25.8441 11.4792 3 
27.275 27.2797 10.0441 3 
1.43375 1.43995 12.9134 3 
1.43518 1.43916 15.783 3 
2.86961 2.87561 14.3485 3 
2.87003 0.00407987 14.3484 3 
4.3046 1.44025 12.9137 3 
7.17509 1.44035 12.9143 3 
5.74042 0.00456601 14.3491 3 
4.30575 1.43984 15.7838 3 
7.17585 1.44028 15.7849 3 
5.74029 2.87584 14.3492 3 
10.0456 1.44021 12.9151 3 
8.61064 0.00471634 14.3499 3 
10.0463 1.44033 15.7855 3 
8.61078 2.87592 14.35 3 
11.4815 2.87586 14.3504 3 
11.4811 0.00450467 14.3503 3 
12.9165 1.43993 12.9153 3 
15.7878 1.43958 12.9151 3 
12.917 1.4401 15.7855 3 
15.7879 1.43968 15.7852 3 
14.3527 2.87569 14.3503 3 
14.352 0.00410138 14.3502 3 
18.6594 1.43936 12.9148 3 
20.0955 2.87508 14.3499 3 
20.0951 0.00346325 14.3494 3 
18.6592 1.43914 15.7848 3 
17.2241 2.87542 14.3501 3 
17.2234 0.00373437 14.3498 3 
22.9671 0.0032607 14.349 3 
21.5312 1.43931 12.9143 3 
24.4029 1.43936 12.9139 3 
22.9671 2.87481 14.3495 3 
21.5312 1.43858 15.7844 3 
24.4035 1.43815 15.7837 3 
28.711 0.00339843 14.3481 3 
25.8392 0.00317503 14.3485 3 
27.2745 1.43958 12.9136 3 
27.2759 1.4382 15.783 3 
28.7104 2.87526 14.3485 3 
25.8388 2.87483 14.349 3 
1.43329 4.31121 12.9134 3 
1.43309 7.18209 12.9134 3 
2.86937 5.74667 14.3486 3 
1.4346 4.31093 15.7834 3 
1.43437 7.18207 15.7836 3 
4.3044 4.31134 12.9136 3 
4.30433 7.18215 12.9135 3 
7.1751 4.31137 12.9143 3 
7.1751 7.18216 12.9143 3 
4.3055 4.31117 15.7841 3 
4.30539 7.18213 15.7841 3 
7.17583 4.31137 15.7851 3 
7.17584 7.18214 15.7852 3 
5.74021 5.74677 14.3492 3 
10.0458 4.31132 12.915 3 
10.0459 7.18215 12.915 3 
8.61086 5.74679 14.3501 3 
10.0465 4.31141 15.7857 3 
10.0466 7.18213 15.7858 3 
11.4818 5.74677 14.3505 3 
15.7885 4.31104 12.915 3 
12.9169 4.31124 12.9152 3 
12.9171 7.18212 12.9151 3 
15.7888 7.18207 12.9149 3 
12.9175 4.31134 15.7858 3 
15.7887 4.31121 15.7857 3 
12.9177 7.1821 15.7859 3 
15.7891 7.18204 15.7859 3 
14.3531 5.7467 14.3504 3 
18.6599 4.31081 12.9146 3 
18.6602 7.182 12.9146 3 
17.2247 5.74659 14.3503 3 
20.0961 5.74642 14.3503 3 
18.6603 4.31099 15.7858 3 
18.6608 7.18199 15.7862 3 
21.5312 4.31067 12.9143 3 
24.4024 4.31078 12.9139 3 
21.5312 7.18197 12.9143 3 
24.4021 7.18198 12.9139 3 
22.9671 5.74622 14.3499 3 
21.5318 4.31037 15.7856 3 
24.4034 4.31 15.7849 3 
21.5323 7.18198 15.7863 3 
24.4029 7.182 15.7854 3 
28.7099 5.74657 14.3487 3 
27.2738 4.31101 12.9136 3 
27.2735 7.18204 12.9136 3 
25.8382 5.74639 14.3493 3 
27.2749 4.31056 15.7839 3 
27.2745 7.18202 15.7842 3 
1.43321 10.053 12.9134 3 
2.86934 8.61754 14.3486 3 
2.86952 11.4886 14.3486 3 
1.43453 10.0532 15.7835 3 
4.30437 10.0529 12.9136 3 
7.1751 10.0529 12.9143 3 
5.74025 11.4884 14.3492 3 
4.30546 10.053 15.7841 3 
7.17586 10.0529 15.7851 3 
5.74022 8.61754 14.3492 3 
10.0458 10.0529 12.915 3 
11.4818 8.61749 14.3504 3 
11.4816 11.4884 14.3504 3 
10.0466 10.0528 15.7858 3 
8.61086 8.61751 14.35 3 
8.61083 11.4883 14.35 3 
12.917 10.053 12.9152 3 
15.7885 10.0531 12.9149 3 
14.3528 11.4885 14.3503 3 
14.3532 8.61747 14.3504 3 
12.9175 10.0528 15.7858 3 
15.7888 10.0529 15.7857 3 
18.66 10.0532 12.9146 3 
17.2242 11.4887 14.3501 3 
17.2247 8.61746 14.3503 3 
18.6603 10.053 15.7858 3 
20.0956 11.4889 14.3499 3 
20.0961 8.61755 14.3503 3 
21.5312 10.0533 12.9143 3 
24.4024 10.0532 12.9139 3 
22.9671 11.4892 14.3496 3 
22.9671 8.61773 14.35 3 
21.5318 10.0536 15.7856 3 
24.4033 10.054 15.7849 3 
27.2737 10.053 12.9136 3 
25.8387 11.4892 14.349 3 
28.7102 11.4888 14.3485 3 
28.7098 8.61754 14.3487 3 
25.8382 8.61762 14.3493 3 
27.2748 10.0535 15.7839 3 
1.43361 12.9242 12.9134 3 
1.43411 15.7958 12.9135 3 
1.43507 12.9249 15.7831 3 
1.43562 15.7972 15.7826 3 
2.86988 14.36 14.3484 3 
4.30474 15.7953 12.9138 3 
4.3045 12.9239 12.9137 3 
7.17506 12.9239 12.9144 3 
7.175 15.7952 12.9145 3 
5.74032 14.3596 14.3492 3 
4.30563 12.9243 15.7839 3 
4.30593 15.796 15.7836 3 
7.17583 12.9239 15.7849 3 
7.17584 15.7953 15.7847 3 
10.0456 12.924 12.9151 3 
10.0453 15.7954 12.9152 3 
8.61066 14.3595 14.35 3 
10.0463 12.9238 15.7856 3 
10.046 15.7952 15.7853 3 
11.4812 14.3596 14.3504 3 
12.9166 12.9243 12.9153 3 
15.7879 12.9246 12.9152 3 
12.9161 15.7959 12.9155 3 
15.7875 15.7962 12.9154 3 
12.9171 12.924 15.7856 3 
15.788 12.9244 15.7852 3 
12.9165 15.7957 15.7853 3 
15.7874 15.7963 15.7847 3 
14.3522 14.36 14.3502 3 
18.6596 12.9247 12.9148 3 
18.6594 15.7964 12.9149 3 
18.6594 12.9249 15.7848 3 
18.6589 15.7969 15.7842 3 
17.2235 14.3604 14.3499 3 
20.0952 14.3606 14.3495 3 
21.5312 12.9247 12.9144 3 
21.5312 15.7964 12.9145 3 
24.4028 12.9247 12.914 3 
24.4031 15.7963 12.9141 3 
21.5312 12.9255 15.7844 3 
21.5309 15.7973 15.7836 3 
24.4033 15.7976 15.783 3 
24.4035 12.9259 15.7838 3 
22.9671 14.3608 14.349 3 
28.7109 14.3607 14.3482 3 
25.8391 14.3609 14.3485 3 
27.2743 12.9245 12.9136 3 
27.2748 15.7962 12.9137 3 
27.2758 12.9258 15.783 3 
27.2758 15.7977 15.7825 3 
1.4343 18.6672 12.9136 3 
1.4352 18.6681 15.783 3 
2.87022 17.2317 14.3483 3 
2.87014 20.1027 14.3485 3 
4.30495 18.6668 12.9138 3 
7.17501 18.6666 12.9146 3 
4.30601 18.6675 15.7836 3 
5.74046 17.2311 14.3491 3 
7.17586 18.6668 15.7845 3 
5.74052 20.1024 14.3491 3 
8.61045 20.1023 14.3499 3 
10.0451 18.6668 12.9153 3 
11.4808 20.1024 14.3503 3 
11.4809 17.2311 14.3503 3 
10.0459 18.6667 15.7851 3 
8.61052 17.2309 14.3499 3 
12.9159 18.6672 12.9156 3 
15.7874 18.6675 12.9154 3 
14.3518 17.2316 14.3502 3 
12.9163 18.6671 15.7852 3 
15.7874 18.6675 15.7848 3 
14.3517 20.1027 14.3502 3 
18.6593 18.6676 12.915 3 
20.0951 17.2322 14.3493 3 
20.0951 20.103 14.3495 3 
18.659 18.6679 15.7844 3 
17.2233 17.232 14.3498 3 
17.2233 20.1029 14.35 3 
21.5312 18.6677 12.9146 3 
24.4031 18.6676 12.9141 3 
22.9671 17.2324 14.3489 3 
21.531 18.6682 15.7839 3 
24.4031 18.6683 15.7834 3 
22.9671 20.1031 14.3491 3 
28.711 17.2322 14.3481 3 
27.2749 18.6675 12.9137 3 
25.8391 20.103 14.3486 3 
27.2754 18.6684 15.783 3 
28.7109 20.1029 14.3484 3 
25.8391 17.2324 14.3484 3 
1.43431 21.538 12.9136 3 
1.43438 24.4089 12.9135 3 
1.43491 21.5381 15.7833 3 
1.43528 24.408 15.7829 3 
2.87015 22.9733 14.3484 3 
4.30501 24.4092 12.9138 3 
4.30498 21.538 12.9139 3 
7.17503 21.538 12.9146 3 
7.17503 24.4093 12.9145 3 
5.74053 22.9735 14.349 3 
4.30584 21.538 15.7837 3 
7.17582 21.538 15.7845 3 
7.17588 24.4092 15.7844 3 
4.30608 24.4086 15.7835 3 
8.61046 22.9736 14.3499 3 
10.0451 24.4092 12.9153 3 
10.0451 21.538 12.9153 3 
10.0458 21.538 15.7851 3 
10.0458 24.4093 15.7851 3 
11.4807 22.9735 14.3503 3 
12.9159 24.4089 12.9156 3 
15.7873 24.4087 12.9154 3 
15.7874 21.538 12.9154 3 
12.9159 21.538 12.9156 3 
12.9163 21.538 15.7852 3 
15.7874 21.5381 15.785 3 
15.7873 24.4086 15.7848 3 
12.9162 24.409 15.7851 3 
14.3517 22.9734 14.3502 3 
18.6592 24.4086 12.915 3 
18.6592 21.5381 12.9151 3 
17.2232 22.9733 14.3499 3 
18.6591 21.5381 15.7846 3 
18.6589 24.4083 15.7843 3 
20.0951 22.9733 14.3495 3 
21.5312 21.5382 12.9146 3 
24.4032 24.4086 12.9141 3 
21.5312 24.4086 12.9146 3 
24.4032 21.5381 12.9141 3 
22.9671 22.9732 14.349 3 
21.531 21.5382 15.7842 3 
24.4031 21.5381 15.7837 3 
21.5309 24.4081 15.7838 3 
24.4032 24.4079 15.7833 3 
27.275 21.5381 12.9137 3 
27.275 24.4087 12.9137 3 
25.8391 22.9732 14.3486 3 
27.2752 21.5381 15.7834 3 
27.2754 24.4078 15.7829 3 
28.7109 22.9732 14.3483 3 
1.43425 27.2803 12.9134 3 
1.43578 27.2789 15.7825 3 
2.87033 25.8444 14.3482 3 
5.74054 25.845 14.349 3 
4.30486 27.2808 12.9137 3 
7.17506 27.2809 12.9144 3 
4.30605 27.2801 15.7835 3 
7.17587 27.2808 15.7846 3 
10.0453 27.2807 12.9152 3 
8.61051 25.8452 14.3498 3 
10.046 27.2809 15.7852 3 
11.4808 25.8449 14.3502 3 
14.3517 25.8445 14.3502 3 
12.916 27.2803 12.9155 3 
15.7874 27.2799 12.9153 3 
12.9164 27.2804 15.7852 3 
15.7872 27.2798 15.7847 3 
18.6592 27.2798 12.9149 3 
18.6588 27.2793 15.7841 3 
20.095 25.844 14.3493 3 
17.2231 25.8442 14.3498 3 
22.9671 25.8439 14.3488 3 
21.5311 27.2798 12.9144 3 
24.4031 27.2798 12.914 3 
21.5308 27.2789 15.7835 3 
24.4033 27.2785 15.783 3 
27.2749 27.2799 12.9136 3 
27.2759 27.2784 15.7825 3 
28.7111 25.8439 14.3481 3 
25.8392 25.8438 14.3483 3 
1.43783 1.4374 18.6519 3 