ITEM: TIMESTEP
52043
ITEM: NUMBER OF ATOMS
18
ITEM: BOX BOUNDS pp pp pp
0.0000000000000000e+00 2.8712000000000000e+01
0.0000000000000000e+00 2.8712000000000000e+01
0.0000000000000000e+00 2.8712000000000000e+01
ITEM: ATOMS x y z c_cna 
25.9871 2.72616 0.396071 5 
24.4009 4.31229 1.39254 5 
22.8148 5.89836 0.395984 5 
24.4009 4.31237 24.4363 5 
23.0021 2.91359 25.848 5 
23.0021 2.91354 28.6928 5 
24.4056 1.33788 27.2704 5 
27.2213 1.49195 27.2704 5 
25.9871 2.72623 25.4327 5 
25.1498 3.5632 27.2704 5 
21.4266 4.31703 27.2704 5 
21.5806 7.13275 27.2705 5 
22.8148 5.89848 25.4329 5 
23.6519 5.06157 27.2705 5 
24.3963 7.28678 27.2705 5 
25.7996 5.71109 28.6928 5 
27.3752 4.30766 27.2704 5 
25.7997 5.71113 25.848 5 
ITEM: TIMESTEP
52044
ITEM: NUMBER OF ATOMS
18
ITEM: BOX BOUNDS pp pp pp
0.0000000000000000e+00 2.8712000000000000e+01
0.0000000000000000e+00 2.8712000000000000e+01
0.0000000000000000e+00 2.8712000000000000e+01
ITEM: ATOMS x y z c_cna 
25.9871 2.72616 0.396071 5 
24.4009 4.31229 1.39254 5 
22.8148 5.89836 0.395984 5 
24.4009 4.31237 24.4363 5 
23.0021 2.91359 25.848 5 
23.0021 2.91354 28.6928 5 
24.4056 1.33788 27.2704 5 
27.2213 1.49195 27.2704 5 
25.9871 2.72623 25.4327 5 
25.1498 3.5632 27.2704 5 
21.4266 4.31703 27.2704 5 
21.5806 7.13275 27.2705 5 
22.8148 5.89848 25.4329 5 
23.6519 5.06157 27.2705 5 
24.3963 7.28678 27.2705 5 
25.7996 5.71109 28.6928 5 
27.3752 4.30766 27.2704 5 
25.7997 5.71113 25.848 5 
