ITEM: TIMESTEP
53041
ITEM: NUMBER OF ATOMS
18
ITEM: BOX BOUNDS pp pp pp
0.0000000000000000e+00 2.8712000000000000e+01
0.0000000000000000e+00 2.8712000000000000e+01
0.0000000000000000e+00 2.8712000000000000e+01
ITEM: ATOMS x y z c_cna 
24.5521 4.16114 1.83095 5 
21.5673 4.34846 1.41565 5 
21.38 7.33326 1.83088 5 
22.966 5.74721 2.82743 5 
24.3648 7.14598 1.41571 5 
22.9706 2.7728 28.7052 5 
25.7863 2.9269 28.7053 5 
19.9917 5.75191 28.7052 5 
24.5521 4.16119 26.8676 5 
21.5673 4.34852 27.2829 5 
21.38 7.33335 26.8677 5 
22.966 5.74732 25.8711 5 
23.7149 4.99818 28.7054 5 
24.3648 7.14605 27.2829 5 
22.2171 6.49641 28.7052 5 
25.9403 5.74261 28.7053 5 
20.1458 8.56761 28.7053 5 
22.9615 8.72168 28.7053 5 
ITEM: TIMESTEP
53042
ITEM: NUMBER OF ATOMS
18
ITEM: BOX BOUNDS pp pp pp
0.0000000000000000e+00 2.8712000000000000e+01
0.0000000000000000e+00 2.8712000000000000e+01
0.0000000000000000e+00 2.8712000000000000e+01
ITEM: ATOMS x y z c_cna 
24.5521 4.16114 1.83095 5 
21.5673 4.34846 1.41565 5 
21.38 7.33326 1.83088 5 
22.966 5.74721 2.82743 5 
24.3648 7.14598 1.41571 5 
22.9706 2.7728 28.7052 5 
25.7863 2.9269 28.7053 5 
19.9917 5.75191 28.7052 5 
24.5521 4.16119 26.8676 5 
21.5673 4.34852 27.2829 5 
21.38 7.33335 26.8677 5 
22.966 5.74732 25.8711 5 
23.7149 4.99818 28.7054 5 
24.3648 7.14605 27.2829 5 
22.2171 6.49641 28.7052 5 
25.9403 5.74261 28.7053 5 
20.1458 8.56761 28.7053 5 
22.9615 8.72168 28.7053 5 
