ITEM: TIMESTEP
53041
ITEM: NUMBER OF ATOMS
2001
ITEM: BOX BOUNDS pp pp pp
0.0000000000000000e+00 2.8712000000000000e+01
0.0000000000000000e+00 2.8712000000000000e+01
0.0000000000000000e+00 2.8712000000000000e+01
ITEM: ATOMS x y z c_cna 
1.4353 1.43696 1.42895 3 
2.87031 2.87218 2.86828 3 
2.87166 0.00106861 2.86545 3 
0.0101756 2.8601 2.88119 3 
4.30459 1.43909 1.42929 3 
7.17506 1.44036 1.42891 3 
5.7395 2.87507 2.86537 3 
5.74054 0.00364325 2.86479 3 
10.0461 1.44099 1.42865 3 
8.61043 2.87614 2.86451 3 
11.4816 2.87655 2.86435 3 
11.4815 0.00498265 2.86407 3 
8.61078 0.00478579 2.86428 3 
12.9171 1.44099 1.4286 3 
15.7878 1.44018 1.42882 3 
14.3517 2.87598 2.86496 3 
14.3522 0.00456913 2.86429 3 
18.6641 1.44524 1.42841 3 
17.2186 2.87146 2.86898 3 
20.1022 2.88341 2.86646 3 
17.2247 0.00584279 2.8647 3 
21.5207 1.42866 1.43839 3 
22.9338 2.82545 2.90996 3 
24.4243 1.42975 1.45993 3 
27.2786 1.43453 1.41867 3 
25.9354 2.77769 2.96842 3 
1.43264 4.30633 1.43368 3 
1.43213 7.18092 1.42979 3 
2.86853 5.74582 2.86693 3 
0.00478844 5.74675 2.87429 3 
4.30283 4.31001 1.42995 3 
7.17432 4.31136 1.42909 3 
4.30229 7.18123 1.42903 3 
7.17391 7.18217 1.42892 3 
5.73868 5.7465 2.86511 3 
10.0461 4.31226 1.42883 3 
10.0456 7.18309 1.42909 3 
8.61001 5.7472 2.86468 3 
11.4813 5.74788 2.86501 3 
15.7879 4.31347 1.4296 3 
12.9177 4.31315 1.42887 3 
12.9171 7.18443 1.42988 3 
15.7874 7.18814 1.43359 3 
14.3515 5.74854 2.86674 3 
18.6476 4.30197 1.43838 3 
18.6486 7.20564 1.45991 3 
17.2153 5.74763 2.87411 3 
20.0443 5.715 2.90995 3 
24.5521 4.16114 1.83095 5 
21.5673 4.34846 1.41565 5 
21.38 7.33326 1.83088 5 
22.966 5.74721 2.82743 5 
24.3648 7.14598 1.41571 5 
27.2834 4.28886 1.45998 3 
27.2845 7.19245 1.43856 3 
25.8877 5.77939 2.91005 3 
1.43235 10.0542 1.42905 3 
2.86831 8.61831 2.86519 3 
2.86789 11.4897 2.8646 3 
0.00151273 8.6229 2.86924 3 
4.30291 10.0533 1.42881 3 
7.17384 10.0534 1.42884 3 
5.73848 8.6178 2.86457 3 
5.73856 11.4893 2.86436 3 
10.0449 10.0541 1.42901 3 
8.60957 8.61827 2.86467 3 
11.4805 8.61932 2.86542 3 
8.6092 11.4896 2.86445 3 
11.4794 11.4908 2.86488 3 
12.9153 10.0554 1.42931 3 
15.7847 10.0576 1.42896 3 
14.3497 8.62226 2.86819 3 
14.3483 11.4934 2.86549 3 
18.6534 10.0599 1.41868 3 
17.2098 8.63436 2.8811 3 
19.9966 8.71673 2.96844 3 
17.2148 11.4984 2.86509 3 
20.079 11.5035 2.88122 3 
21.5077 10.0647 1.46001 3 
22.9983 8.66894 2.91004 3 
22.9657 11.498 2.87429 3 
24.4114 10.0657 1.4386 3 
28.7074 11.4884 2.865 3 
27.268 10.0491 1.42867 3 
25.8298 8.61093 2.86666 3 
25.8419 11.4947 2.86925 3 
1.43112 12.9241 1.42887 3 
1.4319 15.7961 1.42885 3 
2.86729 14.3603 2.86432 3 
4.3028 15.7959 1.42877 3 
4.30289 12.9248 1.4288 3 
7.17376 12.9249 1.42879 3 
7.17371 15.7963 1.42876 3 
5.7384 14.3606 2.86424 3 
10.0442 12.9257 1.42888 3 
10.0441 15.7972 1.42883 3 
8.60894 14.3611 2.86432 3 
11.4789 14.3624 2.86459 3 
12.9139 12.9275 1.42906 3 
15.7825 12.9306 1.42926 3 
12.9142 15.7987 1.42897 3 
15.7855 15.7991 1.42909 3 
14.3484 14.3646 2.86509 3 
18.6557 12.9285 1.42905 3 
18.6578 15.7977 1.42943 3 
17.2197 14.3648 2.86554 3 
20.091 14.3635 2.86833 3 
21.5253 12.9259 1.43378 3 
21.5289 15.7961 1.43005 3 
22.9648 14.3618 2.86694 3 
24.4 12.9254 1.42985 3 
24.4003 15.7956 1.42914 3 
28.7088 14.361 2.86464 3 
27.2732 12.9255 1.42913 3 
27.2725 15.7961 1.42893 3 
25.8374 14.3615 2.86526 3 
1.43203 18.6671 1.42884 3 
2.86765 17.2316 2.86425 3 
2.86816 20.1023 2.8643 3 
4.30326 18.667 1.42876 3 
7.17413 18.6673 1.42872 3 
5.73853 17.2317 2.86415 3 
5.73923 20.1025 2.86416 3 
10.0447 18.6682 1.42877 3 
8.60913 17.2324 2.86419 3 
11.4795 17.2334 2.86434 3 
8.60989 20.1032 2.8641 3 
11.4806 20.1039 2.86412 3 
12.9157 18.6688 1.42884 3 
15.7873 18.6687 1.4289 3 
14.3505 17.234 2.86458 3 
14.3518 20.104 2.86423 3 
18.659 18.6681 1.42906 3 
17.2222 17.2336 2.86491 3 
20.0939 17.2326 2.86548 3 
17.2233 20.1038 2.86436 3 
20.0948 20.1035 2.8646 3 
21.5302 18.6675 1.42922 3 
24.4012 18.6672 1.42908 3 
22.9655 17.2319 2.86518 3 
22.9661 20.1032 2.86476 3 
28.7085 17.2318 2.86438 3 
28.7087 20.1026 2.8645 3 
27.2725 18.6672 1.42895 3 
25.8369 17.2318 2.86461 3 
25.8373 20.1029 2.86473 3 
1.43274 21.5377 1.42891 3 
2.86946 22.9724 2.86455 3 
1.43444 24.4073 1.42902 3 
4.30563 24.4078 1.42886 3 
4.30419 21.5376 1.4288 3 
7.17503 21.5382 1.4287 3 
5.74033 22.973 2.86427 3 
7.17573 24.4091 1.4287 3 
10.0457 21.539 1.42866 3 
8.6107 22.974 2.86405 3 
11.4814 22.9747 2.86397 3 
10.0462 24.41 1.42856 3 
12.9166 21.5393 1.42866 3 
15.788 21.5392 1.42868 3 
14.3523 22.9747 2.86401 3 
12.9172 24.4104 1.42856 3 
15.7882 24.4102 1.4286 3 
18.6596 21.5391 1.42878 3 
17.2236 22.9745 2.86413 3 
20.0952 22.9746 2.86441 3 
18.6597 24.4101 1.42867 3 
21.531 21.5391 1.42894 3 
24.402 21.5388 1.4292 3 
22.9667 22.9745 2.86507 3 
24.4032 24.4103 1.42993 3 
21.5319 24.4107 1.42894 3 
28.7098 22.9728 2.8649 3 
27.2731 21.5382 1.42909 3 
25.8383 22.9738 2.86546 3 
27.2743 24.4087 1.42934 3 
0.00518256 28.708 2.86502 3 
1.43747 27.2759 1.42916 3 
2.87158 25.8418 2.865 3 
0.000283089 25.8417 2.86546 3 
4.30605 27.279 1.42896 3 
7.17569 27.2807 1.42874 3 
5.74101 25.844 2.86444 3 
10.0462 27.2814 1.42857 3 
8.61097 25.8453 2.86408 3 
11.4816 25.8457 2.86395 3 
12.9171 27.2815 1.42855 3 
15.789 27.2822 1.42857 3 
14.3528 25.846 2.86399 3 
20.0902 28.7117 2.869 3 
18.659 27.2808 1.42884 3 
17.2233 25.8453 2.86431 3 
20.0947 25.8447 2.86498 3 
22.9663 28.7083 2.87412 3 
21.5322 27.2809 1.42964 3 
22.9673 25.8445 2.86678 3 
24.4068 27.2805 1.43362 3 
25.853 28.703 2.8811 3 
27.2763 27.2779 1.42891 3 
25.8411 25.8429 2.86822 3 
1.44267 1.42988 4.31013 3 
1.44221 1.43426 7.18198 3 
2.8735 2.87291 5.74178 3 
0.0128399 2.86899 5.75396 3 
4.30632 1.43747 4.30269 3 
7.17552 1.4397 4.30053 3 
4.30781 1.43767 7.17523 3 
7.17608 1.43924 7.17235 3 
5.74078 2.87484 5.73739 3 
5.7416 0.00257698 5.73725 3 
10.046 1.44035 4.29996 3 
10.0456 1.43957 7.17171 3 
8.61052 2.87557 5.73607 3 
11.4806 2.87545 5.73635 3 
11.4809 0.00412947 5.73567 3 
8.61092 0.00405527 5.73578 3 
12.9162 1.43988 4.30031 3 
15.7853 1.4378 4.30245 3 
12.915 1.43873 7.17289 3 
15.7838 1.43661 7.17604 3 
14.3492 2.87385 5.7387 3 
14.3508 0.00313595 5.73684 3 
18.6593 1.44042 4.30354 3 
18.6571 1.43825 7.17668 3 
17.2155 2.86888 5.74538 3 
20.0941 2.87525 5.74351 3 
17.2221 0.00326573 5.73838 3 
21.5156 1.42246 4.32089 3 
24.4032 1.41325 4.33219 3 
21.5273 1.43501 7.17967 3 
24.4035 1.43281 7.18118 3 
22.9636 2.86699 5.74766 3 
27.3138 1.39925 4.34393 3 
27.2827 1.43027 7.18464 3 
25.8508 2.86218 5.75317 3 
1.43907 4.30891 4.30864 3 
1.43716 7.18504 4.3056 3 
1.44018 4.31095 7.18037 3 
1.43841 7.18562 7.17862 3 
2.87195 5.74753 5.74045 3 
0.00871704 5.75074 5.74978 3 
4.3042 7.18276 4.30151 3 
7.17485 4.31125 4.30066 3 
4.30492 4.31038 4.30247 3 
7.17441 7.18263 4.30047 3 
4.30595 7.18361 7.17406 3 
4.30677 4.31096 7.17476 3 
7.17553 4.31118 7.17236 3 
5.74003 5.74702 5.73708 3 
7.17501 7.18302 7.17224 3 
10.0457 4.31166 4.30036 3 
10.0452 7.18308 4.30068 3 
10.0452 4.31118 7.17212 3 
8.61007 5.74712 5.73625 3 
10.0447 7.18302 7.17237 3 
11.4801 5.74721 5.73698 3 
12.9158 4.31151 4.3013 3 
15.7829 4.30922 4.30536 3 
12.9151 7.18392 4.30236 3 
15.7809 7.18542 4.30847 3 
12.9142 4.31052 7.17388 3 
15.7816 4.30852 7.17842 3 
12.9134 7.18324 7.17468 3 
14.3481 5.7467 5.74027 3 
15.7799 7.18326 7.18019 3 
18.6413 4.29678 4.32088 3 
18.6322 7.18454 4.33214 3 
18.6539 4.3085 7.17965 3 
17.2113 5.74349 5.74956 3 
18.6518 7.18473 7.18113 3 
20.0859 5.7448 5.74762 3 
24.4119 4.30117 4.3359 3 
21.5357 4.31682 4.30936 3 
21.5201 7.19312 4.33591 3 
24.3963 7.17745 4.30945 3 
21.53 4.31116 7.1772 3 
24.4047 4.30824 7.17796 3 
21.5272 7.18592 7.17791 3 
22.966 5.74711 5.74099 3 
24.4019 7.183 7.17728 3 
27.2998 4.30981 4.33229 3 
27.2907 7.19751 4.32108 3 
27.2802 4.30945 7.18128 3 
25.846 5.74941 5.74774 3 
27.278 7.18565 7.1798 3 
1.43479 10.0564 4.30273 3 
1.43627 10.0576 7.1763 3 
2.87083 8.62033 5.73895 3 
2.86929 11.4911 5.73714 3 
0.00453221 8.62532 5.74563 3 
4.30388 10.0543 4.30061 3 
7.17411 10.054 4.30019 3 
4.30514 10.0554 7.17309 3 
5.73956 8.61877 5.73655 3 
7.17454 10.0547 7.17191 3 
5.73913 11.4901 5.73595 3 
10.0445 10.0547 4.30068 3 
8.6096 8.61868 5.73622 3 
10.0441 10.055 7.17245 3 
11.4793 8.61945 5.73742 3 
8.60916 11.4902 5.73598 3 
11.4785 11.4918 5.73737 3 
12.9137 10.0569 4.30272 3 
15.7773 10.0645 4.3101 3 
12.9123 10.0566 7.17523 3 
14.3465 8.62139 5.74167 3 
15.7778 10.0601 7.18187 3 
14.345 11.4963 5.74184 3 
18.6182 10.0951 4.34391 3 
17.2072 8.6253 5.75384 3 
18.6492 10.064 7.18456 3 
20.0811 8.63208 5.75316 3 
17.2043 11.5089 5.75575 3 
20.0879 11.5061 5.75391 3 
21.5288 10.0811 4.33228 3 
24.4165 10.0719 4.32105 3 
21.5284 10.0615 7.18119 3 
22.9684 8.62724 5.7477 3 
22.9698 11.502 5.74973 3 
24.4046 10.0592 7.17977 3 
28.71 11.491 5.73866 3 
27.2728 10.0538 4.3038 3 
25.8378 8.61895 5.74367 3 
27.2749 10.0559 7.17687 3 
25.8444 11.4977 5.74558 3 
1.43224 12.9252 4.30056 3 
1.43247 15.7966 4.30006 3 
1.43358 12.9266 7.17311 3 
1.43335 15.7973 7.1719 3 
2.86809 14.3611 5.73586 3 
4.30338 12.9254 4.30004 3 
4.30312 15.7962 4.29974 3 
7.17389 12.9253 4.2999 3 
7.17382 15.7966 4.2997 3 
4.30418 12.9263 7.17193 3 
4.30368 15.7968 7.17112 3 
7.17413 12.926 7.17143 3 
5.73873 14.3611 5.73545 3 
7.17402 15.797 7.17095 3 
10.044 12.9261 4.30026 3 
10.044 15.7975 4.29993 3 
10.0436 12.9269 7.17216 3 
8.60895 14.3616 5.73557 3 
10.0439 15.798 7.17143 3 
11.4785 14.363 5.73635 3 
12.9132 12.9283 4.30118 3 
15.7809 12.9322 4.30296 3 
12.9139 15.799 4.30046 3 
15.7847 15.7998 4.30117 3 
12.9118 12.9296 7.17482 3 
15.7778 12.9353 7.18111 3 
12.9133 15.7997 7.17267 3 
14.3473 14.3657 5.73809 3 
15.7834 15.8013 7.17475 3 
18.6487 12.9359 4.31015 3 
18.6562 15.7994 4.30274 3 
18.6531 12.9355 7.18187 3 
17.2168 14.3682 5.74181 3 
18.6564 15.801 7.17515 3 
20.0918 14.3668 5.74172 3 
21.5279 12.9323 4.30863 3 
21.5293 15.7981 4.30246 3 
24.4041 12.9304 4.30557 3 
24.4019 15.7975 4.30146 3 
21.5299 12.9335 7.18023 3 
21.5299 15.8 7.17464 3 
22.9666 14.3652 5.74038 3 
24.4047 12.9317 7.17851 3 
24.4027 15.7992 7.1739 3 
28.7102 14.3624 5.73712 3 
27.2755 12.9279 4.30274 3 
27.2735 15.7971 4.30059 3 
27.2767 12.9294 7.17621 3 
25.8395 14.3641 5.73886 3 
27.2746 15.7984 7.17301 3 
1.43248 18.6672 4.29989 3 
1.43317 18.6674 7.17137 3 
2.8682 17.232 5.73545 3 
2.86867 20.1023 5.73553 3 
4.30353 18.6671 4.29967 3 
7.17423 18.6675 4.29959 3 
4.30402 18.6673 7.17093 3 
5.7388 17.232 5.73517 3 
7.17444 18.6676 7.17072 3 
5.73951 20.1026 5.7352 3 
10.0447 18.6683 4.29966 3 
8.60918 17.2326 5.73523 3 
10.0446 18.6685 7.17089 3 
11.4793 17.2337 5.73565 3 
8.60995 20.1033 5.73505 3 
11.4804 20.1039 5.73516 3 
12.9154 18.669 4.29986 3 
15.7867 18.669 4.30017 3 
12.915 18.6692 7.17136 3 
14.3498 17.2345 5.73631 3 
15.786 18.6695 7.17201 3 
14.3513 20.1041 5.73542 3 
18.6583 18.6686 4.3006 3 
17.2212 17.2346 5.73727 3 
18.6579 18.6692 7.17229 3 
20.0937 17.2339 5.73737 3 
17.2226 20.104 5.7358 3 
20.0943 20.1036 5.73605 3 
21.5301 18.668 4.30067 3 
24.4017 18.6677 4.30047 3 
21.5301 18.6687 7.17227 3 
22.966 17.2333 5.737 3 
22.966 20.1033 5.73617 3 
24.4021 18.6683 7.17208 3 
27.2731 18.6674 4.30017 3 
28.7093 17.2324 5.73593 3 
28.7094 20.1025 5.73594 3 
25.8379 17.2329 5.73647 3 
27.2738 18.6678 7.17182 3 
25.8378 20.1029 5.73615 3 
1.43325 21.5375 4.30024 3 
1.43527 24.4067 4.30114 3 
1.434 21.537 7.1721 3 
2.87011 22.972 5.7363 3 
1.43657 24.4052 7.17478 3 
4.30449 21.5375 4.29987 3 
7.17516 21.5381 4.29959 3 
4.30601 24.4074 4.30037 3 
7.1759 24.4089 4.29975 3 
4.30498 21.5373 7.17139 3 
7.17535 21.538 7.17084 3 
5.74064 22.9728 5.73556 3 
7.17618 24.4085 7.1713 3 
4.3067 24.4068 7.17261 3 
10.0461 24.4098 4.29945 3 
10.0456 21.5389 4.29947 3 
10.0455 21.5389 7.17063 3 
8.61076 22.9739 5.73511 3 
10.046 24.4094 7.17077 3 
11.4811 22.9745 5.73497 3 
12.9164 21.5393 4.29953 3 
15.7875 21.5392 4.2997 3 
12.9169 24.4101 4.29943 3 
15.7876 24.4098 4.29974 3 
12.916 21.5392 7.1708 3 
15.7868 21.539 7.17123 3 
14.3518 22.9744 5.73519 3 
15.7867 24.409 7.17167 3 
12.9164 24.4096 7.17089 3 
18.6589 21.539 4.29996 3 
18.6585 24.4092 4.30034 3 
18.6582 21.5386 7.17167 3 
17.2227 22.974 5.73569 3 
20.0941 22.9736 5.73632 3 
18.6574 24.408 7.17286 3 
21.5304 21.5388 4.30036 3 
24.402 21.5385 4.30071 3 
21.5302 24.4089 4.30132 3 
24.4028 24.4083 4.30238 3 
21.5299 21.5383 7.17204 3 
22.966 22.9732 5.73693 3 
24.4021 24.4065 7.17463 3 
24.402 21.5379 7.17227 3 
21.5292 24.4072 7.17384 3 
27.2737 21.5379 4.30068 3 
27.2759 24.407 4.30271 3 
28.7108 22.9719 5.73733 3 
27.2741 21.5374 7.17237 3 
25.8384 22.9726 5.73741 3 
27.2756 24.4056 7.17518 3 
2.87508 28.7101 5.74183 3 
0.0157096 28.6975 5.75581 3 
1.43907 27.2743 4.30293 3 
1.44219 27.2711 7.18116 3 
2.87268 25.8407 5.73804 3 
0.00325165 25.8383 5.7418 3 
4.30679 27.2781 4.30109 3 
7.17597 27.2802 4.30006 3 
4.30829 27.2768 7.17472 3 
5.74153 25.8434 5.73622 3 
7.17648 27.2795 7.172 3 
10.0461 27.281 4.29964 3 
8.61107 25.8448 5.73533 3 
10.046 27.2803 7.1712 3 
11.4813 25.8452 5.73515 3 
12.9166 27.2809 4.29972 3 
15.7879 27.2811 4.30022 3 
12.9159 27.28 7.17167 3 
14.352 25.8452 5.73553 3 
15.7865 27.2797 7.17286 3 
18.6566 27.2784 4.30244 3 
20.0877 28.7086 5.74539 3 
17.2218 25.8439 5.73686 3 
18.6553 27.2769 7.17607 3 
20.0925 25.8423 5.7387 3 
21.528 27.2759 4.30539 3 
24.4041 27.2741 4.3085 3 
22.9622 28.7044 5.7496 3 
21.5272 27.2747 7.17842 3 
22.9654 25.8412 5.74029 3 
24.402 27.2729 7.18021 3 
25.8441 28.7003 5.75388 3 
27.2833 27.2706 4.31009 3 
25.8402 25.8398 5.74167 3 
27.2789 27.271 7.18189 3 
2.87336 2.87422 8.61259 3 
2.87424 0.000205721 8.61299 3 
1.43689 1.43739 10.0475 3 
2.87096 2.87473 11.4808 3 
0.00260259 2.87297 8.61435 3 
2.87146 0.00210713 11.4809 3 
5.74158 2.87496 8.60915 3 
5.74217 0.00249895 8.60915 3 
4.30733 1.43844 10.0458 3 
7.17632 1.43912 10.0438 3 
5.74132 2.87504 11.4798 3 
5.74175 0.00285921 11.4798 3 
8.61061 2.87523 8.60777 3 
11.4799 2.87488 8.60832 3 
10.0455 1.4392 10.0433 3 
8.61067 2.8751 11.479 3 
11.48 2.87489 11.4793 3 
8.61105 0.00333477 11.4788 3 
11.4805 0.00331589 11.4789 3 
11.4804 0.00342644 8.60763 3 
8.61104 0.00353555 8.60746 3 
14.3489 2.87374 8.61065 3 
14.3501 0.00250798 8.60918 3 
12.9149 1.43869 10.0444 3 
15.7856 1.43836 10.0454 3 
14.3504 2.87471 11.4801 3 
14.3508 0.00317193 11.4795 3 
17.2201 2.87339 8.61205 3 
20.0935 2.87463 8.6116 3 
17.2215 0.00270971 8.6102 3 
20.0922 0.00110808 8.61205 3 
18.6577 1.43878 10.0457 3 
17.2219 2.87492 11.4803 3 
20.094 2.87515 11.4801 3 
20.0937 0.00291094 11.4803 3 
17.2222 0.00324846 11.48 3 
22.9661 2.87331 8.61138 3 
22.9659 0.00244143 11.4804 3 
21.5296 1.43819 10.0459 3 
22.9661 2.87476 11.4798 3 
24.4025 1.43743 10.0461 3 
25.8408 2.87206 8.61258 3 
25.8386 0.00190473 11.4808 3 
28.7111 2.87436 11.4808 3 
27.2762 1.43675 10.0472 3 
25.8386 2.87428 11.4801 3 
28.7115 0.00158277 11.4812 3 
2.87228 5.74774 8.61179 3 
1.43602 4.31087 10.0468 3 
1.43519 7.1837 10.0462 3 
2.87034 5.74723 11.4805 3 
0.00112418 5.74763 8.61309 3 
5.74093 5.74725 8.60889 3 
4.30594 7.18353 10.0451 3 
7.1758 4.31115 10.0439 3 
4.30665 4.31113 10.0456 3 
7.17526 7.18317 10.0437 3 
5.74075 5.74722 11.4796 3 
8.6101 5.74708 8.60788 3 
11.4793 5.74685 8.60881 3 
10.045 4.31099 10.0436 3 
10.0445 7.18299 10.0438 3 
8.61014 5.74709 11.479 3 
11.4795 5.74688 11.4796 3 
14.3479 5.74638 8.61164 3 
15.7849 4.31038 10.0461 3 
12.9143 4.31054 10.045 3 
12.9136 7.18301 10.0455 3 
15.7841 7.18331 10.0467 3 
14.3499 5.74688 11.4804 3 
17.2188 5.7465 8.61293 3 
20.0922 5.74736 8.61134 3 
18.6572 4.31085 10.0459 3 
18.6564 7.18387 10.046 3 
17.2215 5.74719 11.4804 3 
20.0937 5.74744 11.4798 3 
22.9659 5.74704 8.61013 3 
21.5299 4.31108 10.0451 3 
21.5292 7.18386 10.0449 3 
22.9658 5.74709 11.4794 3 
24.4018 7.18306 10.0451 3 
24.4026 4.3103 10.0449 3 
27.2755 4.31031 10.0462 3 
28.7105 5.74696 11.4804 3 
25.8396 5.74677 8.61143 3 
27.2747 7.18327 10.0459 3 
25.8381 5.74677 11.4798 3 
2.87124 8.62034 8.61081 3 
2.87002 11.4917 8.60934 3 
1.43444 10.0557 10.0455 3 
2.86977 8.61938 11.48 3 
2.8693 11.491 11.4794 3 
4.30525 10.0555 10.0444 3 
5.74032 8.61926 8.60847 3 
5.73972 11.4908 8.60779 3 
7.17475 10.055 10.0434 3 
5.74019 8.61926 11.4793 3 
5.73969 11.491 11.4789 3 
8.60961 8.61894 8.60786 3 
11.4786 8.61925 8.60914 3 
8.60914 11.4907 8.6076 3 
11.478 11.4918 8.60919 3 
10.0439 10.0551 10.0438 3 
8.60963 8.61909 11.479 3 
11.4789 8.61915 11.4797 3 
8.60916 11.491 11.4788 3 
11.4785 11.4914 11.4797 3 
14.3468 8.61999 8.61249 3 
14.3459 11.4941 8.61295 3 
12.9129 10.0558 10.0458 3 
15.7832 10.0569 10.0473 3 
14.3492 8.61948 11.4807 3 
14.3487 11.4923 11.4809 3 
17.2174 8.62127 8.61418 3 
20.091 8.62214 8.61247 3 
17.2165 11.4967 8.61539 3 
20.0919 11.4959 8.61418 3 
18.6557 10.0576 10.047 3 
17.2209 8.61993 11.4807 3 
20.0932 8.62001 11.48 3 
17.2205 11.4929 11.4811 3 
20.0933 11.4925 11.4806 3 
22.9657 8.62087 8.61137 3 
22.9666 11.4944 8.61295 3 
21.5293 10.0569 10.046 3 
22.9656 8.61948 11.4797 3 
22.9659 11.4919 11.4803 3 
24.4022 10.056 10.0458 3 
28.7105 11.4915 8.61031 3 
28.7119 8.62072 8.6122 3 
28.7101 8.61922 11.4802 3 
25.8384 8.6195 8.61167 3 
25.8397 11.4931 8.6121 3 
28.7099 11.4909 11.4798 3 
27.2743 10.0554 10.0457 3 
25.8378 8.619 11.48 3 
25.8381 11.4913 11.4801 3 
2.86886 14.3619 8.6077 3 
1.43372 12.9267 10.0442 3 
1.43376 15.7977 10.0434 3 
2.86894 14.362 11.4787 3 
5.73917 14.3617 8.60702 3 
4.30454 12.9267 10.0435 3 
4.30415 15.7972 10.0426 3 
7.1743 12.9265 10.043 3 
7.17415 15.7974 10.0424 3 
5.73933 14.3621 11.4784 3 
8.60891 14.3622 8.60716 3 
11.4779 14.3637 8.60863 3 
10.0436 12.9271 10.0436 3 
10.0437 15.7983 10.0431 3 
8.60894 14.3624 11.4785 3 
11.4784 14.3633 11.4794 3 
14.3465 14.3666 8.61175 3 
12.9125 12.9286 10.0457 3 
15.783 12.9303 10.0474 3 
12.9131 15.8 10.0446 3 
15.7845 15.8007 10.0456 3 
14.3487 14.3645 11.4805 3 
17.219 14.3674 8.61288 3 
20.0931 14.3666 8.61242 3 
18.6563 12.9302 10.0473 3 
18.6572 15.8005 10.0457 3 
17.2209 14.3647 11.4808 3 
20.0936 14.3643 11.4806 3 
22.9668 14.3656 8.61159 3 
21.5298 12.9294 10.0466 3 
21.5301 15.7999 10.0453 3 
22.9663 14.3637 11.4802 3 
24.4026 15.7992 10.0449 3 
24.4028 12.9285 10.046 3 
28.7101 14.3624 11.4794 3 
28.7108 14.3632 8.60928 3 
25.8395 14.3645 8.61063 3 
27.2748 12.9276 10.0454 3 
27.2746 15.7985 10.0443 3 
25.8385 14.3631 11.4798 3 
2.86881 17.2324 8.60698 3 
2.86926 20.1023 8.60713 3 
1.43364 18.6676 10.0429 3 
2.86909 17.2325 11.4783 3 
2.86947 20.1023 11.4784 3 
5.73917 17.2323 8.60654 3 
5.73987 20.1025 8.60661 3 
4.30445 18.6674 10.0424 3 
7.17464 18.6678 10.0422 3 
5.7394 17.2325 11.478 3 
5.74009 20.1025 11.4781 3 
8.6092 17.2329 8.60663 3 
11.479 17.2341 8.60735 3 
8.60999 20.1033 8.60638 3 
11.4801 20.104 8.60658 3 
10.0445 18.6687 10.0424 3 
8.60921 17.2331 11.4781 3 
11.4789 17.2342 11.4788 3 
8.61003 20.1033 11.4779 3 
11.48 20.1041 11.478 3 
14.3492 17.2352 8.60854 3 
14.3507 20.1043 8.60702 3 
12.9147 18.6695 10.043 3 
15.7859 18.6697 10.0435 3 
14.3497 17.2349 11.4794 3 
14.3506 20.1043 11.4784 3 
17.2212 17.2352 8.60906 3 
20.0938 17.2347 8.609 3 
17.2221 20.1041 8.60742 3 
20.094 20.1037 8.60763 3 
18.6578 18.6694 10.0436 3 
17.2216 17.2349 11.4796 3 
20.0939 17.2345 11.4796 3 
17.222 20.1041 11.4786 3 
20.0939 20.1037 11.4788 3 
22.9663 17.2342 8.6087 3 
22.966 20.1033 8.6077 3 
21.53 18.669 10.0436 3 
22.9662 17.234 11.4794 3 
22.966 20.1033 11.4788 3 
24.4022 18.6685 10.0435 3 
28.7099 20.1025 8.60752 3 
28.71 17.2329 8.60769 3 
25.8384 17.2336 8.60828 3 
25.838 20.1028 8.60767 3 
28.71 20.1024 11.4786 3 
28.7101 17.2329 11.4788 3 
27.2741 18.668 10.0432 3 
25.8384 17.2334 11.4791 3 
25.8381 20.1028 11.4788 3 
2.87076 22.9714 8.60859 3 
1.43554 24.4059 10.0457 3 
1.43416 21.5369 10.0436 3 
2.87033 22.9718 11.4794 3 
5.74104 22.9724 8.6073 3 
4.30538 21.5371 10.0431 3 
4.30693 24.4066 10.0447 3 
7.1764 24.4081 10.043 3 
7.17553 21.5379 10.0424 3 
5.74113 22.9723 11.4788 3 
8.61082 22.9736 8.60654 3 
11.4809 22.9742 8.60643 3 
10.0459 24.409 10.0424 3 
10.0454 21.5387 10.0421 3 
8.61085 22.9734 11.4781 3 
11.4807 22.974 11.478 3 
14.3512 22.9741 8.60685 3 
15.7863 24.4087 10.0434 3 
12.916 24.4093 10.0426 3 
14.351 22.974 11.4783 3 
12.9156 21.5391 10.0424 3 
15.7864 21.5389 10.0428 3 
17.222 22.9735 8.60759 3 
20.0936 22.9729 8.60823 3 
18.6574 24.4079 10.0443 3 
18.6578 21.5385 10.0432 3 
17.222 22.9736 11.4788 3 
20.0936 22.973 11.4792 3 
22.9657 22.9724 8.6087 3 
22.9657 22.9725 11.4794 3 
24.4019 21.5376 10.0436 3 
24.4018 24.4066 10.0454 3 
21.5298 21.5381 10.0435 3 
21.5293 24.4073 10.0449 3 
28.7108 22.9713 8.60915 3 
25.8382 22.9718 8.60904 3 
27.2742 21.5371 10.0437 3 
25.8381 22.972 11.4796 3 
28.7104 22.9717 11.4796 3 
27.2747 24.4061 10.0457 3 
0.00348233 28.7097 8.61551 3 
2.87356 25.8399 8.61174 3 
2.87134 25.8421 11.4806 3 
1.43707 27.2762 10.0475 3 
0.00105718 25.8391 8.61296 3 
5.74213 25.8427 8.60856 3 
4.30764 27.2778 10.0457 3 
5.74177 25.8431 11.4795 3 
7.17663 27.2793 10.0436 3 
8.6112 25.8442 8.60702 3 
11.4809 25.8446 8.60687 3 
11.4808 25.8444 11.4784 3 
8.61119 25.844 11.4785 3 
10.0459 27.2798 10.0429 3 
14.3512 25.8445 8.60754 3 
14.3512 25.8444 11.4788 3 
15.7863 27.2795 10.0442 3 
12.9156 27.2796 10.0434 3 
17.2212 25.8432 8.60916 3 
20.0925 25.8419 8.61063 3 
17.2219 25.8439 11.4795 3 
18.6571 27.2786 10.0454 3 
20.0935 25.8433 11.48 3 
22.9653 28.7118 8.61295 3 
22.9651 25.8409 8.61164 3 
21.5291 27.2779 10.0461 3 
24.402 27.2771 10.0467 3 
22.9656 25.8428 11.4804 3 
25.84 28.7104 8.61426 3 
25.8388 25.8399 8.61247 3 
27.2757 27.2763 10.0474 3 
25.8383 25.8423 11.4807 3 
28.7111 25.8419 11.4809 3 
1.43469 1.43852 12.9152 3 
2.87044 0.00267674 14.3494 3 
1.43463 1.43857 15.7837 3 
2.87004 2.8749 14.3494 3 
4.30607 1.43885 12.9149 3 
7.17616 1.43912 12.9144 3 
5.7409 2.87511 14.3494 3 
4.30601 1.43888 15.7839 3 
7.17612 1.43912 15.7844 3 
5.74128 0.00302038 14.3494 3 
10.0456 1.43914 12.9142 3 
8.61066 2.87511 14.3494 3 
10.0456 1.43914 15.7846 3 
11.4803 2.87501 14.3494 3 
8.61103 0.00327795 14.3494 3 
11.4807 0.00335339 14.3495 3 
12.9155 1.43906 12.9145 3 
15.7866 1.43917 12.9147 3 
14.3509 2.87505 14.3495 3 
12.9155 1.43905 15.7844 3 
15.7866 1.43916 15.7842 3 
14.3512 0.00344047 14.3495 3 
17.2225 0.00350389 14.3494 3 
18.6583 1.43934 12.9148 3 
17.2224 2.87528 14.3494 3 
20.0942 2.87538 14.3494 3 
18.6583 1.43931 15.7841 3 
20.0941 0.00336457 14.3495 3 
22.966 0.00307029 14.3494 3 
21.5301 1.43915 12.9147 3 
24.4022 1.43876 12.9147 3 
22.9661 2.87513 14.3494 3 
21.5301 1.43915 15.7841 3 
24.4022 1.43881 15.7841 3 
28.7102 2.87474 14.3494 3 
25.8382 0.00273719 14.3494 3 
27.2745 1.43845 12.915 3 
27.2745 1.4385 15.7839 3 
28.7105 0.00249843 14.3494 3 
25.8381 2.87479 14.3494 3 
1.43421 4.31091 12.915 3 
1.43377 7.1831 12.9148 3 
1.43414 4.31097 15.7838 3 
1.43375 7.1832 15.7838 3 
2.86956 5.74714 14.3494 3 
4.30555 4.3111 12.9149 3 
4.3055 4.31115 15.784 3 
4.30505 7.18324 12.9147 3 
7.17569 4.31113 12.9144 3 
7.17515 7.18316 12.9143 3 
5.74039 5.74718 14.3494 3 
4.30502 7.18331 15.784 3 
7.17567 4.31117 15.7844 3 
7.17513 7.18322 15.7844 3 
10.0451 4.31101 12.9143 3 
10.0446 7.18305 12.9144 3 
11.4799 5.74701 14.3494 3 
10.0451 4.31103 15.7845 3 
10.0446 7.1831 15.7843 3 
8.61015 5.74712 14.3494 3 
15.7863 4.31106 12.9149 3 
12.9152 4.3109 12.9147 3 
12.9147 7.1831 12.9147 3 
15.7859 7.18332 12.9149 3 
12.9151 4.31093 15.7842 3 
15.7863 4.31109 15.784 3 
12.9146 7.18314 15.7839 3 
15.7858 7.18337 15.7838 3 
14.3505 5.74709 14.3494 3 
18.6581 4.31133 12.9147 3 
18.6578 7.18355 12.9147 3 
17.2221 5.74736 14.3494 3 
18.6581 4.31137 15.7841 3 
18.6578 7.18362 15.784 3 
20.094 5.74744 14.3494 3 
21.5301 4.31126 12.9145 3 
24.402 4.31087 12.9144 3 
21.5297 7.18342 12.9144 3 
24.4017 7.18297 12.9144 3 
21.5301 4.31133 15.7843 3 
24.402 4.31094 15.7843 3 
21.5298 7.18349 15.7842 3 
24.4017 7.18306 15.7842 3 
22.9659 5.74716 14.3493 3 
28.7098 5.74693 14.3493 3 
27.2741 4.31073 12.9147 3 
27.2738 7.18287 12.9146 3 
25.8378 5.74688 14.3493 3 
27.2741 4.3108 15.784 3 
27.2737 7.18298 15.784 3 
1.43349 10.055 12.9146 3 
2.86918 8.61913 14.3493 3 
2.86892 11.4908 14.3492 3 
1.43348 10.0551 15.7839 3 
4.30459 10.0551 12.9144 3 
7.17465 10.0551 12.9142 3 
5.73947 11.4909 14.3492 3 
5.73989 8.61921 14.3493 3 
4.30459 10.0552 15.7841 3 
7.17463 10.0552 15.7844 3 
10.0441 10.0551 12.9143 3 
11.4789 11.4913 14.3493 3 
10.0441 10.0552 15.7843 3 
8.60921 11.491 14.3493 3 
11.4793 8.61918 14.3493 3 
8.60961 8.61916 14.3493 3 
12.9142 10.0554 12.9148 3 
15.7854 10.0558 12.915 3 
14.3497 11.4918 14.3493 3 
12.9141 10.0555 15.7838 3 
15.7854 10.0559 15.7836 3 
14.3501 8.61937 14.3493 3 
18.6574 10.056 12.9148 3 
20.0937 11.4918 14.3492 3 
20.0937 8.61961 14.3493 3 
17.2214 11.492 14.3493 3 
18.6574 10.056 15.7837 3 
17.2217 8.61966 14.3493 3 
21.5296 10.0556 12.9146 3 
24.4017 10.0551 12.9145 3 
22.9658 11.4913 14.3492 3 
22.9657 8.61924 14.3493 3 
21.5297 10.0557 15.7839 3 
24.4018 10.0552 15.7839 3 
27.2737 10.0549 12.9146 3 
28.7095 11.4907 14.3492 3 
28.7096 8.61897 14.3493 3 
25.8378 11.4909 14.3491 3 
27.2737 10.0549 15.7838 3 
25.8376 8.61888 14.3492 3 
1.43337 12.9264 12.9142 3 
1.43356 15.7974 12.914 3 
2.86884 14.3619 14.3491 3 
1.43336 12.9265 15.784 3 
1.43352 15.7974 15.7843 3 
4.30419 15.7973 12.9137 3 
4.30426 12.9265 12.914 3 
7.17429 12.9267 12.914 3 
7.17423 15.7976 12.9137 3 
5.73925 14.3621 14.3492 3 
4.30424 12.9266 15.7844 3 
4.30413 15.7973 15.7846 3 
7.17427 12.9267 15.7845 3 
7.17421 15.7976 15.7847 3 
10.0438 12.927 12.9142 3 
10.0439 15.7983 12.914 3 
11.4788 14.3631 14.3493 3 
10.0438 12.9271 15.7843 3 
10.0439 15.7984 15.7845 3 
8.60901 14.3625 14.3492 3 
12.9138 12.9277 12.9148 3 
15.7851 12.9282 12.9151 3 
12.914 15.7992 12.9145 3 
15.7854 15.7995 12.9147 3 
14.3495 14.3637 14.3493 3 
12.9138 12.9277 15.7838 3 
15.7851 12.9282 15.7835 3 
12.914 15.7992 15.784 3 
15.7854 15.7995 15.7838 3 
18.6574 12.9281 12.915 3 
18.6576 15.7993 12.9147 3 
17.2214 14.3638 14.3492 3 
20.0938 14.3635 14.3492 3 
18.6575 12.9282 15.7835 3 
18.6577 15.7993 15.7837 3 
21.5299 12.9277 12.9148 3 
21.5301 15.7989 12.9146 3 
24.4021 12.9272 12.9146 3 
24.4023 15.7983 12.9144 3 
22.9661 14.363 14.3492 3 
21.5299 12.9277 15.7836 3 
21.5301 15.7989 15.7838 3 
24.4023 15.7984 15.7839 3 
24.4021 12.9272 15.7837 3 
27.274 12.9267 12.9145 3 
27.2742 15.7979 12.9142 3 
28.7098 14.3622 14.3491 3 
25.8382 14.3625 14.3491 3 
27.274 12.9268 15.7838 3 
27.2742 15.7979 15.7841 3 
1.43371 18.6675 12.9138 3 
2.86943 20.1023 14.3492 3 
2.86904 17.2325 14.3492 3 
1.43369 18.6675 15.7845 3 
4.30456 18.6675 12.9137 3 
7.17471 18.6679 12.9136 3 
5.7394 17.2326 14.3492 3 
5.7401 20.1025 14.3493 3 
4.30452 18.6675 15.7847 3 
7.17467 18.6679 15.7849 3 
10.0445 18.6688 12.9137 3 
8.61004 20.1033 14.3493 3 
11.48 20.104 14.3492 3 
10.0445 18.6688 15.7848 3 
8.60926 17.2332 14.3492 3 
11.4792 17.2341 14.3493 3 
12.9148 18.6694 12.9139 3 
15.786 18.6695 12.9141 3 
12.9148 18.6694 15.7845 3 
15.786 18.6695 15.7843 3 
14.3506 20.1043 14.3492 3 
14.35 17.2345 14.3492 3 
18.6579 18.6692 12.9142 3 
20.0939 20.1037 14.3492 3 
20.0939 17.2341 14.3492 3 
17.2217 17.2345 14.3492 3 
18.6579 18.6692 15.7842 3 
17.222 20.1041 14.3492 3 
21.53 18.6688 12.9142 3 
24.4022 18.6683 12.9141 3 
22.9662 17.2336 14.3491 3 
22.966 20.1032 14.3492 3 
21.5301 18.6688 15.7842 3 
24.4022 18.6683 15.7842 3 
28.71 17.2327 14.3491 3 
28.71 20.1024 14.3492 3 
27.2742 18.6679 12.914 3 
25.8383 17.2332 14.3491 3 
25.8382 20.1027 14.3492 3 
27.2742 18.6678 15.7843 3 
1.434 21.5371 12.9141 3 
1.43455 24.4071 12.9148 3 
1.43399 21.537 15.7843 3 
2.87001 22.9721 14.3493 3 
1.43452 24.407 15.7838 3 
4.30607 24.4074 12.9146 3 
4.30527 21.5372 12.914 3 
7.1756 21.5378 12.9137 3 
7.17626 24.4082 12.9141 3 
5.74094 22.9725 14.3493 3 
4.30523 21.5371 15.7845 3 
7.17555 21.5378 15.7849 3 
4.30602 24.4073 15.7841 3 
7.17626 24.4081 15.7846 3 
10.0459 24.4088 12.9138 3 
10.0454 21.5387 12.9136 3 
11.4807 22.9739 14.3493 3 
10.0454 21.5386 15.7849 3 
10.0459 24.4088 15.7849 3 
8.61082 22.9733 14.3493 3 
12.9159 24.4092 12.9138 3 
15.7865 24.4089 12.9141 3 
15.7863 21.539 12.9139 3 
12.9155 21.5391 12.9137 3 
14.351 22.974 14.3493 3 
12.9155 21.539 15.7848 3 
15.7864 21.5389 15.7846 3 
15.7866 24.4089 15.7846 3 
12.9159 24.4091 15.7848 3 
18.6578 24.4085 12.9144 3 
18.6578 21.5386 12.9141 3 
17.2221 22.9737 14.3493 3 
18.6579 21.5385 15.7845 3 
18.6578 24.4084 15.7843 3 
20.0938 22.9732 14.3493 3 
21.5298 21.5381 12.9141 3 
24.4019 24.4076 12.9147 3 
21.5297 24.408 12.9146 3 
24.402 21.5377 12.9142 3 
22.9658 22.9727 14.3493 3 
21.5298 21.538 15.7843 3 
24.402 21.5376 15.7843 3 
21.5297 24.4079 15.7841 3 
24.4019 24.4075 15.7839 3 
28.7102 22.9721 14.3492 3 
27.2743 24.4072 12.9148 3 
27.2741 21.5373 12.9142 3 
27.2742 21.5372 15.7842 3 
27.2743 24.4072 15.7838 3 
25.8381 22.9723 14.3493 3 
1.43491 27.2783 12.9152 3 
2.87048 25.8428 14.3493 3 
1.43487 27.2783 15.7836 3 
7.17641 27.2793 12.9143 3 
4.30632 27.2788 12.9149 3 
5.74135 25.8433 14.3494 3 
4.30628 27.2787 15.7839 3 
7.17636 27.2793 15.7845 3 
10.0459 27.2797 12.914 3 
11.4808 25.8443 14.3494 3 
10.0459 27.2796 15.7848 3 
8.61115 25.8439 14.3494 3 
15.7867 27.2798 12.9145 3 
12.9158 27.2798 12.9142 3 
14.3513 25.8444 14.3494 3 
12.9159 27.2797 15.7847 3 
15.7867 27.2797 15.7844 3 
17.2223 25.8441 14.3494 3 
20.0938 25.8438 14.3494 3 
18.658 27.2795 12.9147 3 
18.658 27.2795 15.7841 3 
24.402 27.2788 12.915 3 
21.5298 27.2792 12.9149 3 
22.9659 25.8434 14.3494 3 
21.5299 27.2791 15.784 3 
24.402 27.2788 15.7838 3 
27.2745 27.2784 12.9151 3 
27.2745 27.2784 15.7837 3 
25.8381 25.843 14.3494 3 
28.7105 25.8428 14.3493 3 
1.43678 1.43744 18.6513 3 
2.87084 2.8748 17.218 3 
2.87322 2.87433 20.0861 3 
0.00256958 2.87311 20.0844 3 
2.87136 0.00209453 17.2178 3 
2.87413 0.000188012 20.0857 3 
4.30721 1.43848 18.6529 3 
7.17623 1.43914 18.6549 3 
5.74125 2.87512 17.219 3 