ITEM: TIMESTEP
54042
ITEM: NUMBER OF ATOMS
18
ITEM: BOX BOUNDS pp pp pp
0.0000000000000000e+00 2.8712000000000000e+01
0.0000000000000000e+00 2.8712000000000000e+01
0.0000000000000000e+00 2.8712000000000000e+01
ITEM: ATOMS x y z c_cna 
24.5521 4.16117 1.83106 5 
21.5673 4.34848 1.41571 5 
21.38 7.33331 1.83087 5 
22.966 5.74728 2.82754 5 
24.3648 7.14606 1.41575 5 
22.9707 2.77276 28.7054 5 
25.7862 2.92689 28.7054 5 
19.9919 5.75188 28.7053 5 
24.5521 4.16112 26.8676 5 
21.5673 4.34844 27.2829 5 
21.38 7.33344 26.8676 5 
22.966 5.74728 25.8711 5 
23.715 4.99796 28.7053 5 
24.3647 7.14608 27.2829 5 
22.2171 6.49663 28.7053 5 
25.9402 5.74259 28.7053 5 
20.1458 8.56763 28.7053 5 
22.9614 8.72174 28.7053 5 
ITEM: TIMESTEP
54043
ITEM: NUMBER OF ATOMS
18
ITEM: BOX BOUNDS pp pp pp
0.0000000000000000e+00 2.8712000000000000e+01
0.0000000000000000e+00 2.8712000000000000e+01
0.0000000000000000e+00 2.8712000000000000e+01
ITEM: ATOMS x y z c_cna 
24.5521 4.16117 1.83106 5 
21.5673 4.34848 1.41571 5 
21.38 7.33331 1.83087 5 
22.966 5.74728 2.82754 5 
24.3648 7.14606 1.41575 5 
22.9707 2.77276 28.7054 5 
25.7862 2.92689 28.7054 5 
19.9919 5.75188 28.7053 5 
24.5521 4.16112 26.8676 5 
21.5673 4.34844 27.2829 5 
21.38 7.33344 26.8676 5 
22.966 5.74728 25.8711 5 
23.715 4.99796 28.7053 5 
24.3647 7.14608 27.2829 5 
22.2171 6.49663 28.7053 5 
25.9402 5.74259 28.7053 5 
20.1458 8.56763 28.7053 5 
22.9614 8.72174 28.7053 5 
