ITEM: TIMESTEP
54000
ITEM: NUMBER OF ATOMS
2001
ITEM: BOX BOUNDS pp pp pp
0.0000000000000000e+00 2.8712000000000000e+01
0.0000000000000000e+00 2.8712000000000000e+01
0.0000000000000000e+00 2.8712000000000000e+01
ITEM: ATOMS x y z 
1.02848 1.54533 1.55932 
2.62607 2.91116 3.03335 
2.62701 0.21053 0.170104 
4.10614 1.40897 1.51696 
7.12651 1.4671 1.1311 
6.88445 1.51402 4.09635 
5.87897 3.06311 2.75831 
5.64701 0.0263807 2.73805 
10.1081 1.37718 1.45958 
8.44556 3.00015 2.79773 
11.5899 2.70095 2.88319 
8.60193 0.144157 2.86866 
8.44783 0.135771 0.0741492 
10.0524 4.07571 1.43882 
11.6238 2.73268 0.0345146 
13.0647 1.24994 1.50598 
15.8808 1.43573 1.44034 
14.4771 2.82858 2.86837 
14.4626 0.0946173 2.98643 
18.5857 1.31291 1.52979 
17.035 2.78547 2.87532 
19.8087 2.9726 2.8887 
17.0733 2.88606 0.0687196 
20.1362 0.0648319 0.158582 
21.2199 1.731 1.5915 
22.9134 2.9173 2.9298 
24.4323 1.67286 1.45473 
22.829 0.311932 2.93738 
22.9526 2.91474 0.195264 
24.4463 4.10104 1.86232 
22.8731 0.0954995 0.285981 
28.5737 2.96501 3.14365 
27.2155 1.5371 1.51889 
25.954 2.95734 3.17306 
28.5831 2.99359 0.0412617 
25.7682 0.196878 2.89624 
25.4924 0.0439941 0.0961687 
25.8816 2.962 0.087308 
28.6404 0.0636994 0.0290992 
1.45539 4.36234 1.37923 
1.51225 7.08258 1.33398 
2.81582 5.75705 2.9671 
0.0726614 5.60937 2.94919 
4.13932 4.23863 1.43798 
6.94312 4.39947 1.24225 
4.18702 7.04736 1.35112 
7.00277 7.30207 1.2906 
5.55332 5.7605 2.83932 
10.2378 7.21165 1.29885 
8.41614 5.75453 2.72287 
11.4578 5.51475 2.83064 
11.4234 5.57106 0.036097 
15.5597 4.18062 1.488 
12.9958 4.29908 1.50288 
13.0855 7.21822 1.34112 
15.7043 7.36196 1.39481 
14.4467 5.588 3.00643 
18.6334 4.38196 1.42187 
18.5933 7.236 1.50154 
17.1572 5.73753 2.70485 
19.9699 5.75556 2.91738 
19.9673 5.87763 0.0625826 
21.4034 4.4026 1.62065 
21.2044 7.32061 1.74506 
22.9216 5.87623 2.74501 
24.3467 7.20891 1.39651 
27.2482 4.43619 1.48451 
27.4994 7.04074 1.26819 
25.7791 5.93297 2.43477 
1.46899 9.94469 1.31803 
2.83537 8.47303 2.736 
2.83026 11.2902 2.77189 
2.99708 11.471 0.0677216 
0.140261 8.61989 2.73752 
4.2834 9.84145 1.32108 
7.18791 9.83062 1.27725 
5.52518 8.63961 2.84439 
5.61274 11.3564 2.79953 
10.3376 9.89916 1.39557 
8.65958 8.67359 2.92492 
11.4652 8.3967 2.88296 
8.60203 11.3855 2.69508 
11.3947 11.6354 2.5968 
13.0416 10.0523 1.53626 
15.6194 10.0404 1.13625 
14.3507 8.46183 2.97573 
14.2938 11.7663 2.67508 
18.6371 10.0249 1.53175 
16.9529 8.5497 2.82981 
19.9329 8.58936 3.04546 
17.0497 11.5071 2.92408 
20.1221 11.4517 2.94953 
17.3286 8.75075 0.189467 
22.8393 11.5041 0.0794625 
21.5497 10.0575 1.40765 
22.9714 8.56856 2.85513 
22.9421 11.4977 3.19276 
24.3655 10.0452 1.40298 
28.692 11.4331 2.85476 
27.0706 10.1186 1.50918 
25.8547 8.58174 2.86025 
25.8572 11.4741 3.03086 
25.7453 8.71997 0.0659952 
28.5982 8.84038 0.0415775 
1.58135 12.8223 1.49677 
1.43453 15.685 1.61834 
2.83303 14.3734 2.83222 
2.98888 14.2427 0.107303 
0.0647984 14.4641 2.83781 
0.0413471 14.1902 0.0576031 
4.34998 12.9387 4.07123 
4.4613 15.6799 1.40322 
4.3851 12.7886 1.52629 
7.30181 12.7611 1.28438 
7.14461 15.5733 1.25721 
7.17466 12.865 4.08754 
5.74847 14.2122 2.72468 
9.90116 12.9713 1.25709 
10.1143 15.8123 1.29089 
10.047 12.954 3.99623 
8.67481 14.3017 2.66164 
11.4991 14.3187 2.68856 
11.5475 14.4126 0.00161196 
12.7297 12.9619 1.23302 
15.8558 12.8959 1.51966 
13.1257 16.0153 1.20928 
15.8436 16.045 1.20326 
12.8916 15.8335 3.91746 
14.4637 14.5536 2.68658 
14.4135 14.374 0.00514214 
18.5989 12.6718 1.32939 
18.5872 15.7547 1.38099 
17.1842 14.3636 2.98923 
19.8541 14.3625 2.69935 
17.0834 14.2143 0.0964801 
21.5408 12.9461 1.59368 
21.4276 15.7051 1.36815 
22.895 14.3148 2.75585 
24.3936 12.7422 1.4825 
24.5401 15.6936 1.43062 
27.2568 12.8599 1.45924 
27.1406 15.5751 1.65405 
25.924 14.2321 2.82155 
1.41531 18.6604 1.39081 
3.0657 17.1675 2.87649 
2.5982 19.9011 2.89083 
2.95573 17.0045 0.107347 
0.00324177 20.0894 2.88458 
4.35033 18.5766 1.33608 
7.24529 18.5959 1.30103 
6.02334 17.1605 2.70213 
5.86295 19.99 2.82711 
10.0726 18.6278 1.29282 
8.48297 17.0203 2.78348 
11.357 17.4483 2.81172 
8.51783 20.3161 2.85348 
11.4235 20.2889 2.91576 
13.0044 18.7719 1.31819 
15.8298 18.7107 1.38776 
13.0386 18.7015 4.08205 
14.4044 17.2384 2.77529 
14.3256 20.3491 2.90235 
18.6052 18.4425 1.32185 
17.1616 17.0145 2.80595 
20.005 17.1094 2.82074 
17.147 20.0639 3.07484 
20.0157 20.0756 2.58417 
20.1001 19.9959 0.087397 
17.2412 20.0506 0.044572 
21.5167 18.6025 1.32273 
24.3975 18.6337 1.25575 
21.5781 18.5526 3.91109 
22.9862 17.0143 2.69996 
23.0462 20.1617 2.67137 
23.1334 17.1308 0.0177181 
28.5167 17.2725 2.85597 
27.1319 18.5808 1.42331 
25.6941 16.9598 2.82079 
25.7086 20.221 2.89229 
28.6515 17.2008 0.0884753 
1.43743 21.4871 1.53969 
2.85108 22.8659 2.99935 
1.68532 24.5224 1.46101 
2.83399 22.8748 0.228245 
0.137234 22.964 2.87216 
0.155051 22.8328 0.0369373 
4.25666 24.4295 1.66559 
4.29036 21.4357 1.60214 
7.10468 21.74 1.38371 
7.1317 21.5932 4.09416 
5.68378 23.0046 2.81778 
7.28476 24.389 1.4378 
9.93271 21.5941 1.30226 
8.54144 23.1541 2.75395 
11.4522 23.0528 2.64444 
9.9356 24.3473 1.33639 
12.9383 21.7603 1.43192 
15.7554 21.6563 1.47603 
14.3616 23.1935 2.8951 
15.773 24.5297 1.44387 
14.5479 23.1133 0.0177878 
18.525 21.439 1.15816 
17.1003 22.9405 2.91529 
19.9435 22.8484 2.82007 
18.7225 24.3278 1.50311 
21.397 21.5807 1.33602 
24.4022 21.7409 1.35648 
21.4926 21.3196 4.07915 
22.792 22.8138 3.01578 
24.3949 24.4633 1.61574 
24.4923 24.5008 4.06998 
21.2259 24.2283 1.39651 
27.3545 21.6448 1.43128 
25.6522 22.9627 2.8467 
27.4687 24.4177 1.52003 
25.7828 23.1058 0.0626771 
2.84391 28.698 2.9741 
2.80055 25.9203 0.060961 
1.27283 27.3214 1.44383 
2.71156 26.0467 2.92158 
4.08625 27.3302 1.39644 
5.72776 28.536 0.076986 
7.07784 27.3261 1.54909 
5.5358 25.9915 2.78292 
5.7675 25.7999 0.029653 
11.6396 28.645 2.83315 
9.8687 27.5685 1.37432 
8.59628 25.9513 2.76969 
11.3204 25.8198 2.76646 
11.4541 26.0397 0.0613611 
8.4627 25.9147 0.0247379 
12.9266 24.7539 1.51253 
12.9522 27.382 1.34322 
15.7218 27.2549 1.57908 
14.2802 25.7651 3.11024 
14.4965 26.0571 0.202454 
17.1956 28.5902 2.85037 
20.0094 28.6553 3.18604 
18.6862 27.3372 1.56585 
17.3419 25.7764 2.93226 
20.0476 25.7804 2.96182 
20.1233 25.9874 0.158244 
17.2755 28.637 0.155364 
17.4043 25.7556 0.166666 
21.5941 27.3713 1.76355 
22.9774 25.8336 3.00601 
24.2841 27.2161 1.68463 
22.8708 25.8258 0.102387 
28.5011 28.6158 2.94426 
28.6932 26.0929 2.93762 
28.5835 25.8936 0.204961 
27.1409 27.3572 1.31441 
25.9353 25.7704 2.98031 
25.7129 25.7323 0.161101 
1.37903 1.37854 4.49277 
1.25083 1.44429 7.39347 
2.89717 2.84691 5.83218 
0.0664944 2.84855 5.83082 
4.22224 1.54834 4.52561 
4.23497 1.48103 7.31261 
7.17827 1.6864 7.04946 
5.62579 2.90468 5.50411 
5.72501 0.164185 5.69406 
9.95012 1.26084 4.19551 
10.0396 1.59227 7.20358 
8.48483 2.92965 5.70357 
11.4349 2.97919 5.80572 
11.3624 0.0151379 5.6528 
8.50212 0.249969 5.63953 
13.1154 1.5115 4.53726 
15.8884 1.34171 4.50022 
12.9403 1.25153 7.07072 
15.6554 1.12551 7.20253 
14.3992 2.76278 5.96597 
12.9775 4.07101 7.18715 
18.379 1.49125 4.28595 
18.6121 1.42255 7.27647 
17.1275 2.97085 5.93696 
19.9861 2.80058 5.69591 
17.2633 0.0226621 5.92438 
20.1542 0.0371124 5.75758 
21.4874 1.63486 4.35321 
24.5832 1.53287 4.30671 
21.6087 1.49448 7.29983 
24.4761 1.58212 7.3046 
23.0846 2.84343 5.80649 
22.971 0.00633044 5.64627 
27.3464 1.51446 4.51377 
27.1401 1.57423 7.20683 
25.8879 3.05424 5.72175 
28.5105 0.0565699 5.8492 
1.21909 4.45806 4.45567 
1.38354 7.08141 4.35434 
1.38482 4.33057 7.33746 
1.3313 6.87306 7.24781 
2.76318 5.65689 5.85866 
4.21432 7.08174 4.46041 
7.11996 4.33247 4.30182 
4.18852 4.50105 4.2716 
7.10986 7.23216 4.11067 
4.20376 7.23338 7.29628 
4.28254 4.36261 7.14756 
7.05142 4.22429 7.20493 
5.84469 5.82899 5.73575 
7.1786 7.26121 7.30105 
9.90439 4.20541 4.33427 
9.86673 6.91796 4.15903 
9.94338 4.2893 7.27921 
8.56179 5.7123 5.86031 
10.1505 7.15268 7.22095 
11.3029 5.77224 5.77766 
13.0004 4.25142 4.29649 
15.6693 4.20846 4.41251 
12.8545 6.92472 4.30991 
15.6475 6.99675 4.40263 
15.6972 4.18153 7.27626 
12.8624 6.99267 7.08646 
14.1978 5.6442 5.82214 
15.7493 7.2945 7.13606 
18.3405 4.47011 4.19805 
18.5418 7.24682 4.38166 
18.6448 4.29007 7.29315 
17.1568 5.8156 5.78658 
18.5536 7.07899 7.18402 
19.9829 5.69608 5.6853 
24.4288 4.33655 4.19205 
21.2699 4.39222 4.20108 
21.5446 7.22938 4.458 
24.2462 7.17938 4.32525 
21.4265 4.32382 7.28101 
24.289 4.2815 7.15945 
21.5073 7.03878 7.28828 
22.915 5.67118 5.7219 
24.3664 7.32865 7.19173 
27.053 4.51651 4.37372 
27.2273 7.22655 4.26722 
28.5349 5.83457 5.7278 
27.2621 4.48057 7.17184 
25.7219 5.85711 5.74428 
27.1409 7.01166 7.29011 
1.42857 10.0487 4.35918 
1.44914 10.0066 7.16513 
2.77682 8.49088 5.63309 
2.99003 11.547 5.66127 
0.00534617 11.4461 5.7444 
0.0736401 8.52826 5.68858 
4.03079 9.96904 7.08699 
4.19372 10.1013 4.57491 
7.17361 10.0537 4.42671 
5.7665 8.41787 5.70288 
7.37123 9.93534 7.26427 
5.97194 11.5868 5.80422 
10.2475 10.1613 4.21066 
8.7882 8.51391 5.73031 
10.0742 10.1247 7.1785 
11.5844 8.63741 5.55038 
8.82569 11.5427 5.50838 
11.525 11.5053 5.73925 
12.9946 10.1219 4.20124 
15.6732 10.0595 4.24648 
12.988 10.0866 7.01781 
14.3295 8.45909 5.8591 
15.8296 10.0778 7.09998 
14.3004 11.5221 5.56823 
18.5887 9.93669 4.38541 
17.2705 8.59365 5.66457 
18.5919 10.0637 7.13393 
20.0895 8.49772 5.96027 
17.2242 11.3403 5.66151 
19.9647 11.4212 5.74933 
21.4615 10.0408 4.42755 
24.3209 10.2135 4.43513 
21.5367 10.2339 7.13324 
22.9994 8.79522 5.75986 
22.9456 11.6112 5.79109 
24.3479 10.1337 7.27441 
27.3844 10.1488 4.31915 
25.8663 8.71647 5.81895 
27.2321 9.97969 7.25108 
26.0232 11.4221 5.89518 
1.53014 12.8397 4.14405 
1.34893 15.7957 4.309 
1.43839 12.9659 7.28023 
1.64477 15.5305 6.87718 
2.94434 14.1742 5.67094 
4.34525 15.8077 4.26338 
7.18731 15.7472 4.29585 
4.26536 12.8487 7.14741 
4.59657 15.7466 7.14938 
7.32851 13.111 6.90195 
5.77867 14.2664 5.5317 
7.32438 15.8557 7.02034 
10.1695 15.8549 4.29218 
10.0583 12.8424 7.35428 
8.69816 14.4644 5.55906 
10.1625 15.8279 7.18931 
11.5075 14.0709 5.7387 
12.8833 13.0195 4.29143 
15.8641 12.7752 4.30296 
15.6796 15.8443 4.27442 
13.0157 12.7839 7.26901 
15.9214 12.8865 7.17441 
12.775 15.7949 6.9553 
14.3785 14.3729 5.71895 
15.7638 15.7842 7.15086 
18.6494 12.9251 4.28051 
18.656 15.8293 4.2451 
18.6048 12.9701 7.32308 
17.227 14.342 5.8218 
18.5277 15.9855 7.24723 
20.0724 14.35 5.77889 
21.3549 12.9408 4.49011 
21.5308 15.7591 4.1635 
24.3948 13.0888 4.40447 
24.3116 15.6441 4.31142 
21.5089 12.8588 7.28765 
21.4249 15.8619 7.12684 
22.8216 14.3783 5.74166 
24.4336 13.0031 7.1736 
24.388 15.8261 7.05701 
27.3956 13.0664 4.28503 
27.3025 15.8214 4.32237 
28.6181 14.3279 5.71792 
27.1691 12.9185 7.28859 
25.864 14.3124 5.81116 
27.3121 15.8894 7.25069 
1.36757 18.6215 4.2131 
1.38419 18.7192 7.17997 
2.81413 17.155 5.67472 
2.78369 19.9055 5.67785 
0.0498703 20.001 5.76147 
4.41215 18.5456 4.24413 
7.19159 18.6554 4.10979 
4.2644 18.6222 7.1903 
5.89072 17.3058 5.68309 
7.25538 18.6183 7.17049 
5.70646 20.1529 5.87582 
10.0808 18.8147 4.17154 
8.65832 17.2754 5.59833 
9.97194 18.777 7.10518 
11.5456 17.418 5.57346 
8.50315 20.1513 5.49723 
11.4144 20.4214 5.61025 
15.7216 18.3933 4.17323 
12.8563 18.7865 7.16929 
14.14 17.1444 5.58689 
15.6489 18.6982 7.09686 
14.3611 19.9931 5.63337 
18.6326 18.6894 4.17959 
17.2583 17.1297 5.70878 
18.4621 18.6833 7.17232 
20.1934 17.228 5.70882 
17.1634 20.0979 5.5532 
20.0317 19.9925 5.43612 
24.3952 18.6846 4.1227 
21.3752 18.7005 7.12884 
22.9034 17.3036 5.55922 
22.8338 20.027 5.70298 
24.4009 18.5616 7.10105 
27.238 18.6774 4.37216 
28.6685 17.2805 5.742 
25.8179 17.0815 5.67928 
27.1835 18.6103 7.44211 
25.9514 19.9063 5.83686 
1.46408 21.37 4.39573 
1.32698 24.5032 4.25642 
1.48317 21.5003 7.10631 
3.05637 22.9076 5.69116 
1.3555 24.502 7.12283 
0.00523303 22.909 5.6364 
4.25423 21.2801 4.37665 
4.35233 24.5279 4.26362 
7.17615 24.4235 4.17302 
4.40374 21.476 7.24934 
7.2518 21.5092 7.13111 
5.73646 23.0539 5.79256 
7.14134 24.4534 6.9945 
4.42021 24.5479 7.14744 
9.80643 21.6943 4.17565 
9.76986 24.4569 4.12306 
9.92099 21.57 7.16859 
8.41067 22.9411 5.63698 
11.2028 23.1312 5.57483 
12.7923 21.6679 4.328 
15.732 21.6217 4.34632 
12.7937 24.2686 4.40892 
15.8821 24.472 4.16295 
12.6535 21.7084 7.2087 
16.0601 21.5884 6.9221 
14.3369 22.9711 5.74928 
15.9099 24.313 7.25165 
12.6537 24.4235 6.97484 
18.5384 21.6083 4.13748 
18.6516 24.338 4.30111 
18.8118 21.4963 7.03303 
17.3692 23.0982 5.82784 
20.1122 23.0713 5.69494 
18.7113 24.5349 7.23093 
24.449 21.5075 4.35797 
21.5445 24.3817 4.2649 
21.577 21.7105 7.16121 
22.8995 22.9791 5.56443 
24.4308 24.2851 7.17008 
24.4615 21.4342 7.07219 
21.5191 24.3333 7.18548 
27.4113 21.4406 4.30893 
27.2768 24.2887 4.35544 
27.3002 21.5084 7.33935 
25.9973 22.9102 5.82183 
27.1615 24.5342 7.01556 
1.37695 27.5018 4.4393 
2.675 28.6884 5.92484 
1.51646 27.2449 7.32504 
2.70982 25.8098 5.67835 
4.31342 27.3032 4.35491 
7.13461 27.5474 4.25953 
4.2644 27.3635 6.97011 
5.76413 25.9739 5.80678 
7.13707 27.4859 7.25925 
10.0077 27.3701 4.18053 
9.95104 24.6553 7.19711 
8.46246 26.1504 5.55426 
10.0637 27.4261 7.00719 
11.3842 25.8828 5.69706 
12.9383 27.3436 4.34402 
15.7282 27.1585 4.42385 
14.3779 28.5485 5.78354 
12.8378 27.2353 7.00241 
14.4107 25.6694 5.80874 
15.8442 27.2192 7.41752 
18.6242 27.1494 4.3939 
17.1958 25.9529 5.71747 
18.7227 27.4496 7.2348 
20.1938 25.8902 5.87775 
21.5584 27.2286 4.43559 
24.3464 27.284 4.32713 
21.568 27.3434 7.48089 
22.9763 25.8382 5.91606 
24.3241 27.2781 7.15044 
27.2866 27.3527 4.37381 
25.729 28.6574 5.77639 
28.6453 25.971 5.73363 
25.8108 25.8503 5.5611 
27.219 27.3214 7.41637 
2.93238 3.02149 8.66867 
2.86062 0.119553 8.56659 
1.40118 1.67516 10.2789 
2.91841 2.84311 11.6627 
2.81929 0.15096 11.496 
0.0315693 2.99201 11.5959 
5.64921 3.10046 8.56035 
5.82042 0.169213 8.46484 
4.30881 1.53187 10.0367 
7.09717 1.52915 10.1609 
5.87681 2.98112 11.4676 
8.48493 2.91575 8.67426 
11.5082 2.72216 8.59835 
8.55403 0.311758 8.56643 
10.0863 1.52459 10.1788 
8.62158 3.08434 11.4505 
11.5947 2.86368 11.5439 
8.67488 0.223342 11.6478 
11.455 0.0619543 11.6341 
14.247 2.78491 8.6051 
14.1583 0.0110145 8.79316 
14.1471 0.0474747 11.6304 
12.8115 1.38917 10.0424 
15.5887 1.44664 10.0198 
14.4063 2.81062 11.4487 
13.0565 4.09117 10.0412 
17.1665 2.80565 8.6519 
19.9978 2.865 8.66326 
17.2399 0.189903 8.6578 
20.0845 0.133707 8.59746 
17.3084 0.0958205 11.5895 
20.0902 0.111146 11.4217 
18.4786 1.57963 10.1783 
17.2679 3.11278 11.4623 
20.081 3.05633 11.2726 
23.136 2.99399 8.75863 
21.5936 1.44698 10.0916 
23.0263 2.88867 11.2791 
24.2766 1.3392 10.0284 
28.6249 2.96628 8.6124 
25.8534 3.17112 8.69778 
28.6234 0.146481 8.72666 
25.7424 0.0817604 8.67176 
27.4143 1.5279 9.99605 
25.9382 2.74006 11.3664 
2.84941 5.79285 8.70426 
1.45225 4.28292 10.1674 
1.23445 7.35775 10.2848 
2.84986 5.68571 11.7166 
5.77716 5.91818 8.61471 
4.37046 7.21058 10.1969 
7.12353 4.34476 10.2244 
4.3712 4.43933 10.0797 
7.19905 7.2626 10.1838 
5.78649 5.72637 11.5766 
8.60136 5.74131 8.78831 
11.7212 5.65479 8.56344 
10.1173 4.10643 9.93651 
10.2414 7.13387 9.94942 
8.77997 5.77112 11.4742 
11.5017 5.60698 11.3966 
14.3845 5.65469 8.69551 
15.669 4.32069 10.0937 
12.9981 7.23906 10.118 
15.8137 7.377 10.0286 
14.3574 5.80499 11.5443 
17.0685 6.00614 8.67167 
19.9938 5.80569 8.59083 
18.69 4.46306 9.94058 
18.5303 7.25802 9.963 
17.2234 5.78197 11.5021 
20.0628 5.96509 11.3034 
22.9082 5.739 8.68596 
21.5711 4.49297 10.052 
21.3886 7.28735 10.169 
22.9225 5.79855 11.5311 
24.345 7.15796 9.94938 
28.6049 5.74527 8.7804 
25.6241 5.64645 8.48207 
27.2752 4.28643 10.2373 
28.6068 5.69268 11.5408 
24.6198 4.35266 10.2817 
27.256 7.28573 10.1854 
25.9634 5.8283 11.5914 
2.61946 8.41865 8.58284 
3.02283 11.5153 8.55434 
0.0380043 11.5114 8.58455 
1.43615 10.0084 9.98175 
2.93694 8.5956 11.5444 
2.84635 11.405 11.5299 
0.127796 11.3658 11.3381 
5.6222 8.85331 8.68317 
5.90045 11.546 8.32717 
4.34646 10.1068 10.1385 
7.18588 9.98416 9.95798 
5.81495 8.48435 11.447 
5.86856 11.5653 11.463 
8.76112 8.51456 8.68015 
11.7466 8.55867 8.43235 
8.63924 11.592 8.53844 
11.68 11.4309 8.54919 
9.98588 10.3147 10.0585 
8.73655 8.55235 11.2554 
11.506 8.66623 11.4219 
8.428 11.5072 11.4685 
11.3561 11.3266 11.4811 
14.4967 8.55155 8.55415 
14.5301 11.5344 8.55375 
12.9798 9.94696 10.0022 
15.693 9.97237 10.1928 
14.2515 8.66035 11.6129 
14.3369 11.432 11.5491 
16.9988 8.74798 8.67611 
19.911 8.55957 8.58871 
17.2589 11.4117 8.66937 
19.9048 11.4076 8.70019 
18.5935 10.0283 10.0635 
17.317 8.52258 11.5418 
20.1543 8.66109 11.6716 
17.2109 11.2925 11.504 
20.0923 11.5454 11.573 
22.825 8.71518 8.65595 
22.8288 11.6575 8.715 
21.5312 10.0772 10.0888 
22.926 8.49778 11.4572 
23.0802 11.5322 11.6097 
24.2947 10.0967 10.1075 
28.6976 8.65337 8.61469 
25.8476 8.70017 8.69989 
25.7201 11.555 8.68659 
28.6008 8.56355 11.8127 
27.2801 10.0818 10.0421 
25.7923 8.63773 11.669 
25.7428 11.5426 11.539 
2.90369 14.2989 8.55906 
0.0343464 14.3477 8.70019 
1.43921 12.9072 9.90719 
1.43991 15.8037 10.1541 
2.88571 14.2706 11.4805 
5.6146 14.2671 8.56683 
4.20276 12.9308 10.1519 
4.25856 15.7572 10.0207 
7.09422 12.9787 9.89583 
7.16695 15.7476 10.0115 
5.94337 14.3781 11.4883 
8.55209 14.2714 8.66257 
11.7999 14.3206 8.54214 
10.1243 12.8717 9.83646 
9.97908 15.718 10.0032 
8.7102 14.247 11.4761 
11.5773 14.3385 11.4902 
14.2495 14.3525 8.47766 
12.8482 12.6794 10.1669 
15.7069 12.8735 10.1938 
12.9423 15.9718 10.0437 
15.8526 15.8051 9.92825 
14.1744 14.5162 11.4514 
17.0883 14.3648 8.64619 
20.0492 14.4724 8.58953 
18.5136 12.9353 10.1175 
18.5116 15.792 9.96865 
17.0762 14.4711 11.3017 
20.048 14.4841 11.489 
22.9266 14.5142 8.60391 
21.289 12.9426 10.1386 
21.5715 15.7606 10.1395 
22.8947 14.3165 11.5818 
24.3139 15.815 10.0799 
24.2725 12.9774 10.2914 
25.8507 14.3598 8.83479 
28.5965 14.3649 11.6135 
27.3139 12.6649 10.0794 
27.3337 15.8202 10.1474 
25.914 14.3102 11.4998 
2.84197 17.1703 8.39434 
2.769 20.1229 8.65687 
0.0560453 20.238 8.69744 
0.187659 17.1502 8.44189 
1.58309 18.8088 10.1849 
2.91828 17.3834 11.3345 
3.05741 20.3658 11.4344 
0.246455 20.2093 11.5517 
0.0561103 17.1668 11.5737 
5.72974 17.2479 8.55604 
5.81405 20.0014 8.59456 
4.16041 18.6158 9.96912 
7.27833 18.7554 9.97419 
5.98779 17.3835 11.3242 
5.90844 20.128 11.4633 
8.78263 17.1856 8.59951 
11.5299 17.3211 8.53395 
8.61715 20.0807 8.53921 
11.3602 20.1353 8.6133 
10.0868 18.5702 9.86499 
8.67509 17.1738 11.2404 
11.4653 17.2971 11.3449 
8.88419 20.0968 11.3876 
11.6233 19.9783 11.3872 
14.4464 17.1949 8.39538 
14.1572 20.2718 8.53896 
12.8363 18.6954 10.1356 
15.5509 18.7197 10.12 
14.3155 17.1257 11.4728 
14.2109 20.1599 11.4741 
17.0899 17.3249 8.60553 
20.129 17.1316 8.57476 
17.2032 20.1831 8.82942 
20.0947 20.1048 8.55227 
18.5051 18.5971 10.1019 
17.1775 17.3513 11.4421 
20.149 17.1488 11.3825 
17.2462 20.0494 11.6703 
19.9978 19.953 11.4358 
22.9365 17.1233 8.53723 
23.1162 20.069 8.52479 
21.5871 18.5997 10.1629 
22.9485 17.2717 11.5462 
22.8069 20.008 11.353 
24.5568 18.6487 9.91437 
25.795 17.0974 8.61264 
25.9174 20.2313 8.66361 
27.6284 18.6564 10.0328 
25.9948 17.2515 11.4807 
25.7905 20.1826 11.3332 
2.90418 22.8763 8.52623 
0.065958 23.028 8.61489 
0.0412482 23.0579 11.5047 
1.46491 24.4383 10.0399 
1.47052 21.7022 10.0407 
2.98848 23.1866 11.4421 
5.83976 22.886 8.69638 
4.43572 21.5053 9.96192 
4.42102 24.3239 10.0127 
7.20254 21.5841 9.92649 
5.81933 23.0477 11.5232 
8.43517 23.0453 8.4828 
11.1774 23.146 8.65078 
10.0819 21.7054 9.90574 
8.63727 23.0341 11.2564 
11.4568 22.9667 11.5025 
14.1403 23.0711 8.48816 
15.6367 24.3526 10.0958 
12.9106 24.4528 10.0125 
14.2427 23.1594 11.562 
12.9753 21.6632 10.0108 
15.5927 21.5319 10.0479 
17.2181 22.8399 8.54388 
20.17 23.0374 8.46072 
18.6246 24.3592 10.1327 
18.6634 21.5688 9.91756 
17.0921 22.97 11.2913 
19.9516 22.8782 11.3982 
22.9442 22.9564 8.52619 
21.6793 24.0956 10.0233 
21.504 21.4589 9.90825 
24.4211 24.28 10.1417 
24.2875 21.5436 9.92814 
23.0269 22.7732 11.5338 
25.8699 22.9994 8.59996 
27.2061 24.3397 10.1552 
25.7653 22.8323 11.5 
27.296 21.6865 10.1387 
2.87257 25.7302 8.66916 
0.104792 25.9064 11.4286 
1.44122 27.3426 9.92292 
2.76972 25.8739 11.4588 
5.7653 25.9015 8.51962 
7.29259 27.5241 10.0715 
5.89263 25.9698 11.4083 
5.66995 28.6864 11.3763 
4.38103 27.3378 9.9921 
7.17843 24.6249 9.82114 
11.4344 28.5618 8.52315 
8.73135 26.0169 8.53559 
11.6568 26.1084 8.48715 
10.1831 27.4658 10.0311 
8.7375 25.9835 11.3583 
11.3472 25.8214 11.4683 
9.96019 24.6583 10.0314 
14.1776 25.8745 8.47242 
12.8714 27.312 10.3004 
15.8778 27.3456 10.0138 
14.3334 25.8924 11.5046 
17.1767 25.7599 8.74295 
20.3268 25.7178 8.68882 
20.2215 25.6351 11.3377 
18.7008 27.1732 10.0212 
17.1511 25.8848 11.572 
22.8767 28.6816 8.70672 
22.9729 25.765 8.63175 
23.0348 25.8301 11.4494 
24.4016 27.3025 10.0371 
21.5044 27.2915 10.2256 
22.8683 28.6569 11.3383 
28.6335 25.9027 8.49201 
25.789 25.7913 8.57505 
25.8608 25.7007 11.4665 
27.1699 27.0145 10.1597 
25.7972 28.6238 11.3753 
28.6537 28.7017 11.5116 
1.54322 1.47975 13.0867 
1.48725 1.29997 15.7143 
0.071381 2.73499 14.3641 
2.96906 2.8573 14.4868 
4.51764 1.34932 12.9386 
7.36058 1.62163 13.0862 
4.4585 1.45162 15.697 
7.2082 1.39297 15.7085 
5.73159 2.98398 14.4135 
11.6123 0.165329 14.3193 
10.1745 1.65813 13.121 
10.0875 1.53155 15.8642 
11.5103 2.81516 14.5418 
8.72518 0.0515866 14.4111 
8.55097 3.06275 14.561 
12.9416 1.56684 12.9567 
15.8425 1.58611 12.8846 
13.0105 1.37799 16.045 
15.7812 1.38215 15.8667 
14.3076 0.128435 14.4938 
14.3812 2.75593 14.5212 
17.159 0.0365735 14.3305 
18.9118 1.49095 13.0126 
18.7272 1.28013 15.8605 
17.4297 2.80685 14.3789 
20.1745 2.95674 14.3679 
21.4797 1.61238 12.9042 
24.3355 1.48015 12.7987 
23.0146 2.79007 14.2342 
21.4655 1.48348 15.6842 
24.1317 1.48268 15.6667 
25.6296 0.0706985 14.2184 
27.3428 1.36257 12.8739 
27.3145 1.28165 15.8534 
25.8691 2.7719 14.4513 
1.46141 4.32571 13.0322 
1.31354 7.03073 13.2363 
1.38276 4.23549 15.9052 
1.41557 7.27437 15.8953 
2.78766 5.85406 14.4932 
0.0466263 5.60689 14.6136 
4.2509 4.38126 13.0604 
4.23692 7.29755 13.0199 
7.22819 4.41509 13.0144 
7.28851 7.16632 12.9478 
5.81913 5.85979 14.3358 
4.24933 4.2684 15.839 
4.18777 7.03102 15.862 
7.27077 4.48871 15.8414 
7.25474 7.14867 15.8593 
10.1408 4.11283 13.0681 
10.1005 7.16357 12.8704 
11.347 5.75034 14.3488 
8.68007 5.77694 14.3542 
10.1166 4.37143 15.8994 
10.2009 7.25059 15.9295 
15.7562 4.37556 12.8077 
12.8117 4.43618 13.015 
12.8065 7.14853 12.8014 
15.6933 7.141 13.0564 
14.3513 5.57174 14.3457 
12.7939 4.27772 15.8232 
15.8084 4.21242 15.8099 
12.8375 7.11568 15.7264 
15.8021 7.21941 15.9131 
18.7393 4.30776 12.9501 
18.6144 7.34613 13.0423 
17.279 5.5924 14.2345 
20.0558 5.78877 14.1937 
18.7901 4.28577 15.7582 
18.6315 7.19464 15.6371 
21.4628 4.3817 12.8792 
24.4429 4.12714 12.9648 
21.5113 7.23971 12.7785 
24.5015 7.1274 12.928 
21.5022 4.44889 15.8028 
24.353 4.17051 15.8478 
21.4772 7.21597 15.6856 
24.4797 7.30156 15.8532 
22.9452 5.63121 14.3695 
27.2484 4.14208 13.0037 
27.3321 7.12702 13.1133 
27.1877 4.19649 15.8343 
27.2692 7.05799 15.9222 
25.8875 5.75147 14.36 
1.40658 10.0306 13.1132 
1.45442 10.1361 15.8922 
2.84996 8.58679 14.4132 
2.98581 11.4222 14.4307 
0.051699 11.5245 14.4577 
4.35563 10.0399 12.7781 
7.10952 10.0426 12.7416 
5.79369 11.562 14.1357 
4.4385 10.1083 15.7669 
7.06906 10.2029 15.474 
5.68477 8.46861 14.3971 
9.97132 10.0847 13.0365 
8.65717 11.4922 14.2807 
11.6108 8.72287 14.3456 
10.0459 9.9718 15.7298 
8.73287 8.446 14.3819 
11.4052 11.2511 14.5072 
12.8972 10.002 12.9782 
15.7519 9.98612 12.8439 
14.4222 11.4143 14.2288 
14.1198 8.42253 14.3312 
13.0389 10.0458 15.9082 
15.7877 9.96573 15.5539 
18.8831 10.1235 12.9731 
17.2319 11.3668 14.2801 
17.2278 8.73073 14.2412 
18.6636 10.0566 15.8073 
20.1573 11.5334 14.3916 
20.1255 8.64403 14.4358 
21.7238 9.95686 12.9331 
24.4959 9.9377 12.8995 
22.9406 11.5038 14.2792 
23.0592 8.55602 14.2318 
21.7492 10.1585 15.6732 
24.4638 9.99919 15.6458 
27.2297 10.0363 12.8682 
25.7917 11.6237 14.234 
25.9886 8.43367 14.3558 
27.3275 10.0358 15.7412 
28.706 8.62735 14.5281 
1.46047 12.706 13.0065 
1.5938 15.7224 12.9028 
3.01558 14.3485 14.2702 
1.59562 13.0822 15.6438 
1.40259 15.7814 15.845 
4.39696 15.9089 12.8168 
4.2172 12.7988 12.8371 
7.26057 13.0179 12.8441 
7.22723 16.0363 12.7412 
5.82449 14.2536 14.1469 
4.5743 12.9989 15.612 
4.2435 15.7538 15.9497 
7.28041 12.8527 15.7259 
7.20914 15.8059 15.7678 
10.1687 12.8476 12.9166 
10.2626 15.7741 12.9206 
8.78208 14.4324 14.3529 
9.99428 12.7792 15.8222 
9.83653 15.7719 15.9323 
11.45 14.268 14.3979 
12.9328 12.7933 13.0138 
15.7231 12.8798 12.7584 
12.7956 15.7488 12.9268 
15.7972 15.9138 12.8016 
14.3024 14.3135 14.292 
12.9842 12.9022 15.8662 
15.9104 12.8663 15.7372 
12.8598 15.7418 15.8288 
15.7986 15.7809 15.9178 
18.7402 12.9028 13.0783 
18.6185 15.8343 12.9592 
17.1327 14.3416 14.303 
20.2676 14.5198 14.3213 
18.8213 12.9351 15.6725 
18.7757 15.722 15.903 
21.5306 12.9595 12.9547 
21.8574 15.8805 12.9939 
24.3384 13.044 13.0039 
24.5006 15.7462 12.851 
23.0744 14.4139 14.4591 
21.6745 12.9459 15.9036 
21.7091 15.8569 15.9266 
24.3415 15.8544 15.8887 
24.4323 12.905 15.7858 
27.4349 12.7461 12.888 
27.3101 15.8719 13.1065 
28.6665 14.4858 14.3478 
27.185 12.7807 15.8213 
27.254 15.8249 15.911 
25.9719 14.4256 14.4438 
1.73631 18.6738 12.9334 
2.95537 20.1322 14.3246 
0.190354 17.2577 14.2768 
1.59314 18.7101 15.7738 
2.93079 17.2486 14.4663 
0.309009 20.2225 14.4784 
4.46397 18.7501 12.8342 
7.2164 18.6524 12.8848 
5.74341 17.1476 14.308 
5.87249 20.1134 14.3786 
4.47579 18.7182 15.8675 
7.23767 18.6473 15.7361 
10.1068 18.4909 12.8784 
8.83611 20.0623 14.2944 
11.5468 20.2352 14.2948 
10.1289 18.5962 15.7909 
8.86004 17.1101 14.3911 
11.5265 17.1337 14.4249 
12.8268 18.657 12.8831 
15.6581 18.7365 12.8628 
14.2137 17.1756 14.2648 
12.885 18.5956 15.7175 
15.7217 18.5223 15.7423 
14.2737 19.9869 14.5299 
18.6436 18.5782 12.8362 
20.0946 16.9639 14.287 
17.2019 17.1984 14.1823 
17.1746 20.0493 14.2752 
18.6788 18.582 15.62 
20.05 20.0925 14.3863 
21.4308 18.5171 13.0767 
24.402 18.8243 12.7486 
23.3165 17.1237 14.3105 
23.0188 19.9979 14.2186 
21.6637 18.559 15.7429 
24.4443 18.7892 15.8133 
27.3792 18.6304 12.8316 
25.8412 17.4412 14.2507 
25.9347 20.0436 14.3319 
27.3504 18.7253 15.8014 
1.65306 21.6609 12.9347 
1.47488 24.3435 12.9909 
0.0932592 22.9787 14.3515 
1.63579 21.7896 15.7871 
3.03224 22.9857 14.4 
1.49652 24.2524 15.8916 
4.40176 24.2896 12.9345 
4.5134 21.6346 13.0734 
7.29363 21.628 12.8326 
4.33216 21.6928 16.0011 
7.29309 21.4469 15.7242 
4.24613 24.4271 15.8015 
7.41106 24.3755 15.7996 
6.03395 22.9734 14.3788 
10.082 24.4378 12.9304 
10.091 21.3982 13.0007 
8.51187 22.8493 14.296 
10.1542 21.6449 15.9516 
10.1575 24.4795 16.04 
11.6817 22.9472 14.3787 
13.0119 24.5822 13.0151 
15.8579 24.3542 12.9261 
15.6139 21.5476 12.9192 
13.046 21.5062 12.9137 
13.0369 21.5856 15.7231 
15.8248 21.4464 15.7329 
15.9048 24.21 15.9155 
12.9739 24.5816 15.8996 
14.4605 22.942 14.4281 
18.6849 24.4091 12.9409 
18.634 21.4747 12.9462 
17.2726 22.8086 14.2225 
18.7599 21.4011 15.6866 
18.6095 24.2967 15.8268 
20.0548 22.9669 14.3895 
24.4148 21.497 13.0793 
21.5138 24.3365 12.9552 
24.4384 24.3501 12.9543 
21.3623 21.5256 12.7997 
22.9865 23.0339 14.3247 
21.5743 21.4234 15.6931 
24.4575 21.4982 15.8809 
21.3347 24.2972 15.7121 
24.2768 24.2925 15.8917 
27.4249 21.4405 13.002 
27.3139 24.3381 12.9692 
27.324 21.415 15.6922 
27.3118 24.4078 15.6297 
26.06 22.9375 14.4131 
2.83869 25.8257 14.2202 
1.54163 27.354 12.901 
0.0378452 28.5353 14.483 
1.33531 27.1774 15.8169 
0.0401497 25.8763 14.4191 
2.9768 28.665 14.466 
5.80865 25.9246 14.3048 
4.37315 27.1312 12.916 
7.2694 27.2288 12.7071 
7.3521 24.6636 12.8892 
5.89028 28.6743 14.4052 
4.33738 27.2964 15.8079 
7.40363 27.0533 15.7406 
10.163 27.2515 12.9685 
10.1063 27.1458 15.8575 
8.88107 25.7535 14.3688 
11.4756 25.8428 14.3643 
12.8221 27.3524 13.0334 
15.6767 27.2533 12.9781 
13.087 27.1982 15.8334 
16.081 27.2064 15.7766 
14.3403 25.831 14.4158 
18.7815 27.2496 12.9547 
17.2951 25.8024 14.2937 
20.2008 28.6546 14.4028 
18.6834 27.2427 15.6333 
20.2081 26.0048 14.5518 
21.5006 27.2719 12.9691 
24.4166 27.12 13.0361 
22.9009 28.6663 14.2701 
21.5457 27.485 15.8598 
24.2136 27.2828 15.7683 
22.6994 25.93 14.3671 
27.2445 27.163 12.9074 
27.2035 27.2527 15.8783 
25.85 25.9351 14.4978 
1.19598 1.43648 18.775 
2.82769 2.89424 17.2674 
2.85387 0.113431 17.2613 
2.87496 2.88807 19.9745 
4.40508 1.46726 18.5696 
7.12734 1.34744 18.691 
5.92101 2.7691 17.1952 
5.76108 0.0566679 17.1933 
5.80457 2.87791 20.1524 
10.1753 1.53749 18.5917 
8.65511 2.87875 17.3497 
11.677 2.80017 17.2755 
8.4823 0.0743665 17.1329 
8.71945 2.79181 20.0106 
11.3919 2.85527 19.978 
11.5164 0.145937 20.1268 
13.1073 1.44195 18.6046 
15.8922 1.77019 18.7428 
14.2422 2.9875 17.3849 
14.4693 2.81169 20.1691 
14.4089 0.058553 20.1957 
18.7574 1.58024 18.6832 
17.328 2.84469 17.1811 
20.202 2.88238 17.3943 
17.2457 0.173434 17.3181 
17.2104 3.0529 20.2276 
20.1167 2.99928 20.1811 
17.1798 0.162663 20.0839 
21.3137 1.51499 18.8128 
22.9574 2.71661 17.2784 
24.4515 1.4681 18.6915 
22.9372 0.086867 17.2851 
22.9943 2.75535 20.1297 
22.9117 0.0413168 20.1094 
28.6956 2.66809 17.1621 
27.3016 1.50484 18.9635 
25.8212 2.78209 17.4547 
25.849 0.0585933 17.2406 
28.6432 2.88408 20.2006 
25.722 2.79382 20.2926 
1.28865 4.18808 18.5828 
1.29341 7.218 18.6853 
2.75614 5.82871 17.282 
0.112476 5.64652 17.2285 
2.65532 5.66601 20.1888 
0.0893169 5.76879 20.0977 
4.24979 4.28635 18.46 
4.24923 7.17161 18.6519 
7.21303 4.32354 18.6484 
5.77526 5.7276 17.2624 
7.0728 7.3177 18.6543 
5.68066 5.74682 20.0195 
10.1982 4.30743 18.5888 
8.68596 5.84104 17.1616 
10.0472 7.17486 18.753 