ITEM: TIMESTEP
55043
ITEM: NUMBER OF ATOMS
18
ITEM: BOX BOUNDS pp pp pp
0.0000000000000000e+00 2.8712000000000000e+01
0.0000000000000000e+00 2.8712000000000000e+01
0.0000000000000000e+00 2.8712000000000000e+01
ITEM: ATOMS x y z c_cna 
0.09804 2.8728 2.86315 5 
22.8615 2.88203 2.86319 5 
24.437 1.47864 1.44082 5 
25.087 3.62655 2.86335 5 
27.4218 1.29136 1.02554 5 
26.5848 2.12817 2.86321 5 
28.656 0.0570721 2.86317 5 
25.8357 2.87742 0.0290057 5 
23.0155 5.6978 2.86313 5 
24.2497 4.46339 1.0255 5 
27.2344 4.2762 1.44072 5 
25.8311 5.8519 2.86311 5 
25.8404 28.6149 2.86323 5 
24.4371 1.47862 4.28562 5 
27.4219 1.29137 4.70086 5 
25.8358 2.87744 5.69733 5 
24.2497 4.46357 4.70083 5 
27.2346 4.27621 4.28554 5 
ITEM: TIMESTEP
55044
ITEM: NUMBER OF ATOMS
18
ITEM: BOX BOUNDS pp pp pp
0.0000000000000000e+00 2.8712000000000000e+01
0.0000000000000000e+00 2.8712000000000000e+01
0.0000000000000000e+00 2.8712000000000000e+01
ITEM: ATOMS x y z c_cna 
0.09804 2.8728 2.86315 5 
22.8615 2.88203 2.86319 5 
24.437 1.47864 1.44082 5 
25.087 3.62655 2.86335 5 
27.4218 1.29136 1.02554 5 
26.5848 2.12817 2.86321 5 
28.656 0.0570721 2.86317 5 
25.8357 2.87742 0.0290057 5 
23.0155 5.6978 2.86313 5 
24.2497 4.46339 1.0255 5 
27.2344 4.2762 1.44072 5 
25.8311 5.8519 2.86311 5 
25.8404 28.6149 2.86323 5 
24.4371 1.47862 4.28562 5 
27.4219 1.29137 4.70086 5 
25.8358 2.87744 5.69733 5 
24.2497 4.46357 4.70083 5 
27.2346 4.27621 4.28554 5 
