ITEM: TIMESTEP
55000
ITEM: NUMBER OF ATOMS
2001
ITEM: BOX BOUNDS pp pp pp
0.0000000000000000e+00 2.8712000000000000e+01
0.0000000000000000e+00 2.8712000000000000e+01
0.0000000000000000e+00 2.8712000000000000e+01
ITEM: ATOMS x y z 
1.41777 1.71805 1.44997 
2.94997 2.95541 3.0877 
2.62597 0.255236 2.86258 
4.24697 1.43745 1.32417 
7.21829 1.50533 1.22507 
5.74812 2.7656 2.74957 
5.52472 0.205665 2.86124 
10.0242 1.35134 1.28499 
8.66714 2.77967 2.75421 
11.5011 2.85521 2.69239 
8.76722 0.235944 2.83549 
11.3825 0.200045 3.05221 
12.9112 1.62099 1.46817 
15.8639 1.63553 1.54506 
14.3043 3.05105 2.94199 
14.437 0.0562851 2.78895 
14.5528 2.84639 0.00841084 
18.5399 1.52654 1.47361 
17.3096 3.08882 2.8434 
20.0275 2.94149 2.7627 
17.2556 0.117401 2.87876 
20.0999 0.0421197 2.91469 
17.1282 0.103877 0.212875 
20.1727 2.9816 0.0771667 
21.6074 1.3244 1.4587 
22.7808 2.94162 2.85803 
24.3961 1.39926 1.61989 
22.8538 0.0397957 3.02638 
22.8998 2.95454 0.180452 
24.8695 3.30571 2.39989 
28.6824 2.98331 2.86699 
27.0897 1.59997 1.2463 
26.4586 2.0719 3.30722 
28.6188 0.183695 2.75831 
28.7002 0.0585947 0.00265256 
1.59263 4.26314 1.50553 
1.40605 7.09061 1.50436 
2.80376 5.61462 2.84562 
4.19983 4.34441 1.2898 
7.10124 4.35007 1.43064 
4.11506 7.1359 1.45105 
7.26245 7.19209 1.39663 
5.6854 5.67772 2.7449 
10.1246 4.33724 1.25417 
10.0225 7.04784 1.23701 
8.44916 5.64078 2.80414 
11.4913 5.77324 2.64424 
15.962 4.37095 1.39619 
13.0256 4.2564 1.34787 
13.0284 7.01012 1.51516 
15.876 7.03317 1.48339 
14.4144 5.78114 3.00372 
14.3143 5.73672 0.0197256 
18.7116 4.3984 1.40192 
18.679 7.16402 1.31894 
17.2579 5.85293 3.02034 
20.1767 5.78659 2.90436 
21.4171 4.49031 1.39567 
21.5443 7.43859 1.40858 
22.95 5.76489 2.75933 
24.4825 7.14203 1.28542 
24.0841 4.69929 0.93574 
28.7016 5.55996 2.98692 
27.1187 4.14968 1.47737 
27.1815 7.01851 1.56919 
25.7425 5.74319 2.89353 
1.31153 10.0559 1.34094 
2.67433 8.57633 2.90948 
2.83944 11.1686 2.90563 
4.09447 9.98366 1.17563 
6.94475 10.0066 1.20561 
5.74058 8.3476 2.91871 
5.62283 11.4544 2.66789 
5.31998 11.5221 0.0901578 
9.94107 10.059 1.36048 
8.57058 8.72454 2.61531 
10.1541 10.0775 4.09317 
11.3422 8.62193 2.72173 
8.51724 11.4291 2.7789 
11.5965 11.5259 2.73863 
12.84 9.92754 1.46423 
15.6393 10.1349 1.31841 
14.3451 8.62456 2.55627 
14.3042 11.5561 2.82424 
14.3664 11.5626 0.102735 
18.7155 10.1044 1.34769 
17.44 8.67323 2.72011 
20.1603 8.73731 2.71638 
17.2878 11.2047 2.87149 
20.2086 11.5246 2.94113 
17.1563 8.57474 0.0650998 
21.5442 10.1834 1.38486 
23.0259 8.71935 2.80955 
23.0511 11.8092 2.86716 
24.4778 10.1681 1.51147 
22.8119 11.4357 0.0656584 
28.5261 8.44065 2.87649 
28.6234 11.5135 2.9173 
27.2626 10.0248 1.35429 
25.7996 8.50486 2.82075 
25.8916 11.5021 2.73048 
1.55378 12.804 1.40064 
1.30263 15.7497 1.17452 
2.94247 14.5218 2.88585 
0.00260857 14.402 2.74352 
5.66241 14.3 0.0559018 
4.29412 15.9193 1.28215 
4.19114 13.0456 1.4068 
7.22349 12.8209 1.2616 
7.2039 15.7121 1.36919 
5.85538 14.3171 2.7234 
10.0729 12.869 1.37111 
10.0761 15.6135 1.43968 
8.62314 14.3913 2.81859 
11.4687 14.3119 2.72214 
13.0877 12.99 1.38771 
15.8395 12.8481 1.45969 
13.0632 15.7559 1.32255 
15.6799 15.712 1.39521 
14.3614 14.4797 2.92928 
14.2844 14.3377 0.0592086 
18.6938 12.7926 1.38319 
18.5254 15.6905 1.36952 
17.3864 14.1562 2.91291 
20.0313 14.2244 2.90665 
19.8807 14.3901 0.0472189 
21.3483 12.7888 1.3661 
21.2355 15.7445 1.45323 
22.7171 14.3543 2.68417 
24.2669 12.8421 1.15993 
24.3041 15.6631 1.26001 
22.5072 14.3823 0.239436 
27.3952 12.9666 1.35234 
27.1658 15.7462 1.25894 
25.65 14.4181 2.82184 
25.831 14.2839 0.0472092 
2.81907 20.23 0.174281 
1.55387 18.7164 1.30955 
3.04943 17.2827 2.77721 
2.9172 20.2859 2.71823 
2.91325 17.386 0.039358 
0.0169079 20.0367 2.73122 
0.0125289 17.0585 2.80667 
5.75441 17.1994 0.027873 
4.44263 18.6637 1.38615 
7.19225 18.6378 1.4936 
5.7691 17.0138 2.7629 
5.82144 20.0858 2.93746 
10.0111 18.6827 1.35852 
8.66173 17.1933 2.67361 
11.3836 17.2135 2.66998 
8.55783 20.1285 2.88684 
11.5651 20.206 2.77809 
11.5437 20.1952 0.016605 
12.8657 18.6328 1.31816 
15.894 18.7025 1.30214 
14.5032 17.3607 2.64514 
14.1764 20.3913 2.81894 
19.9639 17.1468 0.0978964 
18.4775 18.6117 1.5352 
17.1915 17.1739 2.96517 
19.9707 17.1472 3.14498 
17.0551 20.0454 3.00176 
20.0994 20.0494 2.88006 
17.2215 20.2424 0.0895341 
17.21 17.2997 0.0670792 
22.9138 19.9483 0.104361 
21.3458 18.6618 1.39281 
24.2857 18.5982 1.52592 
22.7158 17.3142 2.79847 
22.8976 20.0374 2.81395 
22.8676 17.226 0.0191747 
27.2067 18.5491 1.43852 
25.865 17.1635 2.91865 
25.8118 19.9759 2.86528 
28.5722 17.2622 0.00882082 
1.28589 21.5524 1.33044 
1.33647 21.5138 4.01313 
2.99677 23.1018 2.71247 
1.5916 24.4745 1.54431 
0.163495 22.9116 2.61625 
2.71962 22.6858 0.0402916 
4.41958 24.4813 1.25598 
4.45762 21.5687 1.57067 
7.11723 21.3583 1.32953 
5.7863 22.9251 2.84614 
7.15587 24.5146 1.283 
9.94798 21.3944 1.37627 
8.56716 23.1825 2.62505 
11.3989 22.919 2.80875 
9.78383 24.6075 1.23446 
11.2518 23.0224 0.0169037 
8.51535 22.8425 0.0155675 
12.8135 21.6434 1.39135 
15.7268 21.4976 1.42219 
14.2149 22.961 2.74875 
15.5995 24.3781 1.47403 
12.8359 24.5195 1.41989 
17.1988 22.9147 0.0947504 
18.6112 21.4707 1.51151 
17.1815 22.9882 2.84316 
19.9984 22.8508 2.97284 
18.6002 24.3839 1.36264 
20.1053 22.8667 0.0401006 
21.4809 21.487 1.55688 
24.4311 21.4848 1.63257 
22.79 22.93 2.93826 
24.2813 24.4265 1.43378 
21.4909 24.3247 1.45489 
22.8187 22.6265 0.0516886 
27.2732 21.4756 1.55407 
25.7477 22.9667 2.96329 
27.1484 24.592 1.24064 
25.8486 22.8527 0.115112 
1.59296 27.4373 1.44213 
3.01807 25.681 2.739 
0.348526 25.8357 2.92908 
3.02921 26.1112 0.00392857 
4.31238 27.3457 1.68197 
6.90166 27.36 1.58284 
5.68003 25.8441 3.1317 
9.95826 27.4367 1.29526 
8.60859 26.0972 2.78266 
11.3297 25.8904 2.7909 
11.6597 28.6442 0.0300888 
12.9447 27.3423 1.37965 
15.9556 27.218 1.53037 
14.1808 25.7259 2.8694 
14.4404 28.6276 0.13166 
18.6412 27.3278 1.65241 
17.3365 25.8482 2.78044 
20.2303 25.8358 3.00872 
17.2301 25.8585 0.0168347 
19.9794 25.6748 0.0935835 
21.4455 27.215 1.52223 
22.9243 25.8663 2.9413 
24.2321 27.3412 1.42659 
22.8332 25.7513 0.0943359 
25.714 28.5159 2.91799 
25.802 28.4978 0.0551913 
27.2499 27.2344 1.37794 
25.5693 25.7317 2.98911 
28.7064 26.0101 0.0930244 
1.28441 1.31692 4.53013 
1.5021 1.3944 7.36506 
2.88816 2.55713 5.80427 
0.0281394 2.89063 5.8338 
4.3749 1.47377 4.44811 
7.2514 1.42081 4.16819 
4.2378 1.47238 7.31465 
7.26411 1.28176 7.22684 
5.74513 2.85468 5.65887 
5.68548 0.0906865 5.78093 
10.2017 1.68028 4.32176 
9.95063 1.51053 7.06368 
8.5729 2.93534 5.73352 
11.5273 2.98763 5.88854 
11.5951 0.173998 5.70692 
12.8885 1.60768 4.2139 
15.8831 1.45871 4.40134 
13.04 1.58867 7.25677 
15.7432 1.70251 7.02122 
14.2635 2.95529 5.59821 
14.4214 0.166477 5.5857 
18.6316 1.53152 4.48719 
18.5888 1.57484 7.2464 
17.2213 3.10532 5.79053 
19.9301 2.9633 5.7756 
20.1203 0.115528 5.75873 
21.3549 1.55871 4.40016 
24.3839 1.36293 4.3044 
21.5533 1.45264 7.21972 
24.533 1.47313 7.06801 
22.8854 3.07968 5.67537 
27.6199 1.27552 4.80551 
27.2949 1.34743 7.37679 
25.8935 2.69898 5.8554 
1.23729 4.29279 4.43994 
1.37843 6.93198 4.26218 
1.39624 4.35717 7.18154 
1.37783 7.35544 7.13602 
2.73779 5.81693 5.80432 
4.22426 7.13089 4.46907 
7.07541 4.35048 4.28616 
4.19516 4.21659 4.56681 
7.24546 7.46753 4.31475 
4.20548 7.09936 7.05167 
4.2524 4.29719 7.16221 
7.28228 4.4609 6.94397 
5.69364 5.7952 5.68826 
7.30241 7.2491 7.15833 
10.0618 4.25899 4.30208 
9.87798 7.18026 4.13836 
10.0299 4.42117 7.09691 
8.83185 5.92423 5.80873 
10.0888 7.27836 7.19957 
11.4644 5.8787 5.63233 
12.9128 4.364 4.26954 
15.853 4.43995 4.28453 
12.8353 7.23103 4.12188 
15.6904 7.32808 4.29132 
13.1864 4.31428 7.31518 
15.7886 4.6283 7.19715 
12.6932 7.21355 7.23269 
14.4644 6.00079 5.84584 
15.5431 7.3945 7.21826 
18.7155 4.3627 4.19622 
18.5777 7.41655 4.33008 
18.6933 4.48252 7.17569 
17.1867 5.98774 5.74762 
18.6529 7.32832 7.37867 
19.98 5.95951 5.69768 
24.4757 4.19607 4.57753 
21.4095 4.45763 4.53814 
21.5888 7.43956 4.19029 
24.3802 7.34606 4.31104 
21.3976 4.40677 7.32636 
24.3415 4.25289 7.34927 
21.5403 7.04625 7.3314 
23.023 5.98454 5.69094 
24.4506 6.91605 7.26233 
27.0815 4.16138 4.18615 
27.2445 7.17251 4.30701 
28.6986 5.70345 5.74535 
27.2453 4.33788 7.27417 
25.8663 5.67408 5.81791 
27.2458 7.10872 7.25326 
1.22035 9.98722 4.11794 
1.43705 9.89471 7.16386 
2.85308 8.67529 5.58063 
2.7813 11.2969 5.63427 
0.0085768 8.72558 5.61111 
4.19973 9.83761 4.31968 
7.07446 10.0341 4.31535 
4.2973 10.1 7.19386 
5.72334 8.75322 5.7954 
7.20217 9.96406 7.04595 
5.75909 11.4963 5.67534 
8.64484 8.79493 5.64245 
10.1432 10.1148 7.21055 
11.2867 8.56602 5.57196 
8.80199 11.4687 5.73083 
11.4944 11.4331 5.52675 
12.9094 9.93798 4.19488 
15.6441 10.0623 4.20699 
12.7898 10.075 7.00591 
14.1666 8.59565 5.65996 
15.6522 10.0437 7.25141 
14.334 11.4653 5.7831 
18.7812 9.95718 4.21929 
17.1751 8.65438 5.71727 
18.6349 9.91167 7.30959 
20.2314 8.44066 5.81495 
17.165 11.4249 5.83888 
20.0154 11.4481 5.76959 
21.4278 10.134 4.36447 
24.2917 10.22 4.47157 
21.5092 9.95757 7.29908 
22.7991 8.65867 5.85423 
22.8511 11.538 5.7324 
24.4836 10.0342 7.07408 
27.1906 9.95386 4.23761 
28.5656 11.4835 5.67511 
25.8241 8.47606 5.84008 
27.2637 10.055 7.0939 
25.9927 11.5761 5.57675 
1.53681 12.9645 4.26314 
1.32158 15.8573 4.19419 
1.64171 13.0395 6.97696 
1.48391 15.7732 7.10021 
2.87008 14.4846 5.71582 
4.23626 12.9488 4.19735 
4.33897 15.768 4.30665 
7.16224 12.9271 4.24297 
7.20048 15.6157 4.30563 
4.22003 13.0092 7.01854 
4.30805 15.8963 7.21941 
7.22742 12.9608 6.93915 
5.65199 14.5217 5.69884 
7.11852 15.6972 7.25776 
10.0807 12.9605 4.25308 
10.0911 15.6595 4.17873 
9.95223 13.0266 7.08246 
8.66366 14.571 5.66602 
10.1024 15.832 7.10022 
11.4817 14.3972 5.70267 
12.9751 13.0607 4.15106 
15.9132 12.7158 4.23959 
12.9225 15.9957 4.32633 
15.7711 15.7764 4.28979 
12.8091 12.7906 7.1181 
15.6744 12.9332 7.12903 
12.8815 15.7688 7.09761 
14.315 14.3953 5.69771 
15.6821 15.8702 7.1327 
18.6819 12.9951 4.34281 
18.7194 15.7318 4.42709 
18.5684 12.974 7.20928 
17.1169 14.2228 5.76141 
18.643 15.8173 7.25655 
20.0773 14.4999 5.87817 
21.3639 13.0746 4.39742 
21.4219 15.7582 4.25635 
24.3792 12.9844 4.30763 
24.2663 15.7828 4.16123 
21.5098 12.7774 7.23825 
21.8655 15.77 7.42856 
22.8518 14.3802 5.84798 
24.4695 12.9406 7.14826 
24.562 15.7904 7.20691 
27.1977 13.1213 4.13178 
27.3207 15.6674 4.28058 
28.7105 14.3217 5.74263 
27.1476 12.7174 7.18465 
25.8391 14.4742 5.55382 
27.3819 15.9318 7.27679 
1.50211 18.7758 4.23069 
1.31218 18.5111 7.02196 
3.01132 17.4137 5.7705 
2.9153 20.191 5.91759 
0.042667 20.0921 5.7792 
0.0590373 17.0595 5.63968 
4.35217 18.6447 4.25478 
7.05932 18.5162 4.20494 
4.69525 18.7436 7.1786 
5.93146 17.1785 5.68971 
7.20114 18.8163 7.03898 
5.85059 20.3276 5.61124 
9.85973 18.525 4.24691 
8.54897 17.1603 5.59613 
9.88169 18.7064 7.10227 
11.4356 17.2366 5.47412 
8.52947 20.0604 5.63665 
11.3434 20.0556 5.64371 
12.8963 18.7273 4.1858 
15.6436 18.6121 4.36012 
12.8329 18.6369 6.98234 
14.2604 17.207 5.66676 
15.7872 18.6837 7.00173 
14.2324 20.3166 5.75695 
18.594 18.8461 4.49429 
17.2678 17.1044 5.70807 
18.6715 18.6859 7.28461 
20.148 17.147 5.85946 
17.1171 20.1522 5.83462 
20.0522 20.1005 5.86253 
21.3621 18.7698 4.31622 
24.3153 18.7219 4.41668 
21.4833 18.6716 7.17329 
22.9279 17.3296 5.70683 
22.891 20.1026 5.61503 
27.448 18.6105 4.30219 
24.6538 18.5076 7.05207 
26.0243 17.0809 5.46593 
27.2958 18.7488 7.17781 
25.8409 20.1111 5.61333 
1.47172 24.3708 4.22497 
1.47174 21.4998 7.13176 
2.68561 22.9852 5.70286 
1.36153 24.3677 7.10949 
0.019318 22.7627 5.65873 
4.28628 21.6432 4.35737 
7.11207 21.5767 4.13669 
4.38231 24.3226 4.37587 
7.13485 24.3663 4.20682 
4.37376 21.5893 7.10893 
7.2526 21.724 7.1579 
5.68831 22.8877 5.79195 
7.09726 24.3592 7.1297 
4.47103 24.4122 7.25236 
9.97516 21.5358 4.15922 
9.86347 24.5291 4.1566 
9.90569 21.6101 7.09509 
8.4704 23.0697 5.56697 
11.1664 23.0911 5.587 
9.89954 24.318 7.08174 
12.7597 21.6819 4.29803 
15.6944 21.7201 4.49356 
12.7989 24.3167 4.24562 
15.6372 24.3662 4.15079 
12.974 21.6485 7.16233 
15.7734 21.5036 7.46696 
14.2331 23.0743 5.72974 
15.8767 24.3218 7.13928 
12.6471 24.5215 6.96938 
18.5948 21.4643 4.40395 
18.5313 24.344 4.30972 
18.6654 21.5545 7.25259 
17.2462 22.8542 5.86594 
20.0085 23.0994 5.73727 
18.5171 24.459 7.29816 
21.634 21.616 4.44443 
24.436 21.7614 4.3346 
21.5865 24.4696 4.40203 
24.2583 24.4674 4.48593 
21.3684 21.4443 7.12696 
22.8203 22.9955 6.00709 
24.3095 24.4194 7.27231 
24.4248 21.2806 7.09012 
21.2889 24.3824 7.28321 
27.4148 21.4247 4.31985 
27.5112 24.3553 4.14164 
27.1983 21.5477 7.0901 
25.9612 23.1114 5.65008 
27.5108 24.2039 7.03728 
1.61626 27.3017 4.20755 
0.0495316 28.5532 6.0336 
2.85996 28.7088 5.85098 
1.56384 27.2151 7.16571 
2.95346 25.8314 5.6354 
0.107825 25.8071 5.7348 
4.21445 27.4218 4.3535 
7.12055 27.4145 4.26503 
4.39634 27.2192 6.99406 
5.79481 25.793 5.65571 
7.00341 27.2883 7.32158 
10.1023 27.3177 4.30673 
8.61222 28.6702 5.72384 
8.51879 25.86 5.66712 
9.9503 27.2467 7.15503 
11.3669 26.031 5.57664 
12.9459 27.4331 4.15628 
15.6987 27.0476 4.32232 
12.8137 27.1607 7.09167 
14.2765 25.8015 5.61963 
15.6561 27.2316 7.18753 
18.6576 27.4389 4.43802 
17.0204 28.7059 5.84751 
17.056 25.8888 5.75391 
18.5493 27.5104 7.24892 
19.9016 25.9271 5.80426 
21.4821 27.4165 4.47217 
24.2961 27.2169 4.82295 
22.947 28.673 5.83778 
21.4577 27.3348 7.31165 
22.654 25.8362 6.0051 
24.373 27.1537 7.4399 
27.321 27.2437 4.3083 
25.8395 28.6358 5.92934 
25.9544 25.6782 5.76108 
27.1215 27.0015 7.2827 
2.9051 3.05134 8.60522 
2.87559 0.0117101 8.61996 
0.0615187 0.117846 11.4248 
1.67582 1.3968 10.1083 
3.07219 3.11734 11.514 
0.0376638 2.88122 11.3497 
5.86805 2.70577 8.45564 
4.21067 1.5311 10.1416 
7.19603 1.53259 10.0699 
5.7292 2.77696 11.5411 
5.7114 0.0203545 11.4823 
8.48856 2.96485 8.61485 
11.6457 2.96619 8.57663 
11.3536 0.195938 8.50176 
9.96929 1.47809 10.0134 
8.73339 2.84859 11.5182 
11.4865 2.75065 11.4416 
14.4515 2.92285 8.69689 
14.5485 0.348266 8.48138 
12.9978 1.32809 9.96692 
15.7518 1.50908 9.97224 
14.4607 2.73919 11.4981 
17.2099 3.04908 8.64832 
20.0009 2.87249 8.604 
17.1523 0.149827 8.36977 
19.9779 0.110616 8.66448 
17.1549 0.252922 11.5844 
19.9605 0.113229 11.511 
18.5506 1.67137 9.83731 
17.126 3.01835 11.7159 
20.1704 3.03382 11.5212 
22.9638 2.9826 8.76316 
22.8351 0.00983103 11.438 
21.4103 1.53388 10.0498 
23.075 2.86622 11.4937 
24.3616 1.35562 10.011 
28.64 2.89149 8.67029 
25.7215 2.93286 8.65468 
25.8982 0.130906 11.3731 
27.0652 1.6955 9.95069 
25.7438 2.93518 11.664 
2.83757 5.84599 8.53879 
0.0136728 5.75441 8.52873 
1.4243 4.4814 10.0807 
1.36264 7.13677 9.94408 
3.13032 5.95586 11.4243 
0.0963328 5.70529 11.4379 
5.83189 5.80336 8.59706 
4.40445 7.17785 9.85011 
6.97452 4.37832 9.94709 
4.43572 4.44658 9.95603 
7.37423 7.26121 10.0317 
5.90496 5.78106 11.6615 
8.78987 5.79809 8.52444 
11.4685 5.57921 8.44845 
9.9604 4.36889 10.0614 
10.2106 7.20495 9.90194 
8.6208 5.85612 11.465 
11.5783 5.60548 11.5926 
14.1526 5.82125 8.76455 
12.8616 4.34074 10.0235 
15.6901 4.41259 10.0832 
12.8561 7.18949 10.1658 
15.7905 7.2443 10.1365 
14.2405 5.77555 11.742 
17.1505 5.87416 8.71642 
20.1305 5.65578 8.74876 
18.7802 4.46065 10.213 
18.7406 7.28676 10.1245 
17.1702 5.78993 11.5667 
20.0331 5.8352 11.5404 
22.8835 5.70504 8.6827 
21.6136 4.25583 10.2496 
21.5986 7.14417 10.1703 
22.9546 5.74921 11.577 
24.4015 6.97162 10.045 
24.4466 4.43921 10.0587 
26.1971 5.66473 8.70314 
27.2796 4.33516 10.1857 
27.2296 7.11602 10.0542 
25.8137 5.72123 11.6257 
2.88466 8.5306 8.45353 
2.80957 11.4941 8.55545 
0.0611397 11.3853 8.43744 
1.52178 9.93812 9.85521 
2.95207 8.33982 11.4568 
2.90077 11.52 11.471 
0.211951 11.5133 11.2996 
0.132775 8.67735 11.4991 
5.72325 8.69643 8.51812 
5.86178 11.4626 8.4398 
4.13448 10.0688 10.0319 
7.0858 10.0795 9.76578 
5.80921 8.7796 11.5349 
5.69943 11.5089 11.3936 
8.59265 8.80981 8.4772 
11.5586 8.7611 8.7572 
8.49655 11.4488 8.4571 
11.5845 11.4724 8.8184 
9.99253 10.1422 10.0189 
8.82222 8.69195 11.3036 
11.6297 8.64728 11.5625 
8.54162 11.5753 11.3812 
11.4598 11.6965 11.3211 
14.228 8.75165 8.85194 
14.2559 11.4651 8.66791 
12.7923 10.046 10.1555 
15.6751 9.96299 10.2863 
14.3474 8.51115 11.7087 
14.4698 11.4564 11.6023 
17.0555 8.71293 8.60736 
20.0649 8.52163 8.7676 
17.2017 11.4796 8.74041 
19.9884 11.438 8.47015 
18.5833 10.017 10.0822 
17.1396 8.49924 11.5961 
20.0233 8.63767 11.5083 
17.2041 11.4521 11.6654 
19.9995 11.6304 11.5213 
23.1973 8.55103 8.77355 
22.9474 11.3127 8.48866 
21.4807 9.95139 9.90515 
22.8911 8.48996 11.3323 
22.7675 11.4212 11.3178 
24.4547 10.0281 10.1803 
28.6029 8.55937 8.58709 
25.872 8.55271 8.49642 
25.7798 11.4263 8.60955 
27.2911 9.9633 10.0776 
25.9554 8.59083 11.3765 
25.9988 11.4629 11.5156 
2.77283 14.4687 8.59005 
0.0400044 14.4382 8.46708 
1.54019 12.896 9.96277 
1.43625 15.8486 10.1243 
2.92133 14.2463 11.4797 
5.75306 14.2443 8.55724 
4.42534 13.0182 10.0473 
4.42064 15.7369 9.94408 
7.21197 13.0937 10.1453 
7.33091 15.8233 9.82241 
5.86366 14.6217 11.4211 
8.64986 14.348 8.66603 
11.5596 14.2638 8.57102 
9.9926 12.9326 10.0592 
10.3262 15.7507 10.1318 
8.69339 14.2473 11.4265 
11.5401 14.2567 11.5362 
14.4014 14.3684 8.61229 
12.821 12.9617 10.0393 
15.8255 13.0735 10.1059 
12.9729 15.7186 10.0242 
15.7286 15.7997 10.1083 
14.2443 14.4669 11.5242 
17.2485 14.3086 8.49983 
20.3689 14.3789 8.61543 
18.7661 12.8527 9.79485 
18.7979 15.8487 9.96329 
17.2896 14.421 11.3516 
20.0455 14.3655 11.4468 
23.2247 14.2107 8.65127 
21.469 12.944 10.2357 
21.6069 15.7999 10.2273 
22.9912 14.3067 11.7357 
24.3921 15.5994 10.2283 
24.4055 12.8072 10.1824 
25.8438 14.3197 8.51515 
28.6516 14.3114 11.5033 
27.3381 12.7853 9.91779 
27.2527 15.7326 10.1603 
25.9563 14.1865 11.4848 
2.90445 17.3152 8.74695 
3.07147 20.0716 8.44091 
0.013397 20.1268 8.63735 
0.0477724 17.1992 8.67978 
1.4157 18.8669 10.0285 
2.90044 17.0265 11.5299 
3.02329 19.9461 11.554 
0.130717 20.1449 11.6688 
0.141841 17.3939 11.4875 
5.83076 17.2001 8.45435 
5.90005 20.2029 8.47361 
4.39644 18.627 10.0399 
7.13851 18.5444 10.1028 
5.53482 17.1708 11.6401 
5.74304 19.9694 11.5629 
8.74971 17.1743 8.52816 
11.4803 17.3088 8.53548 
8.62878 20.2363 8.62688 
11.4759 20.0916 8.43731 
10.0075 18.6498 10.0405 
8.5921 17.0632 11.5171 
11.5048 17.3218 11.4262 
8.59479 20.2592 11.4262 
11.529 20.2309 11.3339 
14.3936 17.2101 8.58583 
14.3586 20.0341 8.55107 
12.8537 18.6651 10.0014 
15.8489 18.6532 9.89346 
14.2663 17.4374 11.5202 
14.2979 20.0792 11.5935 
17.2717 17.1749 8.69758 
20.209 17.2672 8.63331 
17.327 20.1152 8.66906 
20.1769 20.1219 8.63124 
18.7888 18.6501 10.0374 
17.33 17.3683 11.4398 
19.9916 17.2966 11.4303 
17.3814 19.9831 11.6477 
20.1185 20.088 11.4217 
23.0355 17.2867 8.65055 
22.8502 20.2177 8.49581 
21.5594 18.6658 10.0022 
23.0104 17.2962 11.6409 
22.8724 20.0067 11.5095 
24.3124 18.6531 10.1725 
25.929 17.2296 8.73083 
25.82 20.0403 8.43789 
27.3377 18.64 9.99151 
25.8805 17.3053 11.3972 
26.0051 20.1144 11.47 
2.98888 23.054 8.4503 
0.0401133 22.8988 8.56124 
0.187688 22.8545 11.4232 
1.65027 24.3124 10.0288 
1.57672 21.6004 9.89763 
3.00045 22.9031 11.5085 
5.59481 22.9795 8.75946 
6.99689 24.3202 10.0011 
4.32612 21.489 10.1173 
4.23455 24.3629 10.0063 
7.29001 21.5023 10.098 
5.86694 22.7696 11.3284 
8.48034 23.0439 8.72116 
11.3763 23.1477 8.55593 
10.0162 24.4292 10.1818 
10.2001 21.7185 9.98071 
8.6798 22.9026 11.5765 
11.4837 23.0534 11.5529 
14.2973 23.0657 8.50166 
15.7858 24.4704 9.92944 
12.9339 24.4405 9.96117 
14.3233 22.9749 11.2756 
12.9357 21.5461 9.95979 
15.6816 21.3822 10.0953 
17.1485 23.0223 8.64069 
19.9621 22.9421 8.79181 
19.9878 22.8667 11.5941 
17.0511 22.956 11.3127 
18.5764 24.3986 10.1505 
18.6923 21.4526 10.038 
23.0007 23.0021 8.64442 
21.5378 21.5721 10.091 
21.3796 24.2132 10.0568 
24.405 24.3856 10.2376 
22.9377 22.6741 11.7108 
24.377 21.3886 10.0695 
25.7905 22.8192 8.8649 
27.2054 21.5362 10.0377 
25.7876 22.8061 11.4235 
27.3205 24.1587 9.94178 
0.153904 28.5015 8.70603 
2.95292 25.8117 8.52886 
0.214889 25.6416 8.58199 
2.85514 28.6818 11.6919 
2.8677 25.7523 11.362 
1.71377 27.3248 10.098 
5.51582 28.6167 8.64947 
5.88676 25.7287 8.68122 
4.28126 27.291 10.0155 
5.90184 25.6489 11.4867 
7.34431 27.3925 10.1731 
8.48912 28.492 8.51253 
8.59489 25.7128 8.75343 
11.5113 25.8163 8.68309 
11.2849 25.8494 11.4171 
8.45771 25.7265 11.4718 
10.0951 27.3271 9.95653 
8.66579 28.5926 11.4852 
11.5515 28.6029 11.4076 
14.3813 25.8683 8.56611 
14.2735 25.9813 11.3949 
15.8362 27.4759 10.0085 
12.9174 27.3014 9.75836 
14.4063 28.6694 11.3263 
17.1867 26.0543 8.73138 
19.9567 25.8003 8.791 
17.197 25.8823 11.4196 
18.3612 27.5299 9.95819 
20.021 26.0766 11.3366 
23.1244 28.6961 8.6929 
22.8014 25.78 8.90269 
21.4205 27.3482 9.90565 
24.2294 27.2099 10.0176 
23.0212 25.7194 11.615 
25.8599 28.5226 8.67252 
25.6891 25.5408 8.57487 
27.3162 27.1229 10.0579 
25.8649 25.7329 11.4069 
28.6199 25.6828 11.3609 
1.50534 1.49034 13.0388 
2.91685 3.20483 14.3526 
1.33407 1.32454 15.6992 
4.16175 1.44046 12.8868 
7.17925 1.36231 12.8941 
5.78619 2.76672 14.3274 
4.25888 1.22857 15.8772 
7.12573 1.33453 15.7673 
10.0336 1.26141 12.9105 
11.3903 2.79839 14.3135 
8.64574 2.85057 14.3419 
10.0078 1.24567 15.9237 
12.851 1.18294 12.8134 
15.6035 1.40432 13.231 
12.8817 4.09634 13.1193 
12.8728 1.48158 15.777 
15.7943 1.37209 15.7463 
14.326 2.78656 14.4657 
17.2173 0.0321707 14.2804 
18.6662 1.56797 12.8644 
20.2365 3.04659 14.2501 
18.6894 1.4509 15.7648 
17.175 3.01826 14.4345 
21.5159 1.50715 12.8946 
24.3792 1.48271 12.944 
21.4293 1.51997 15.7482 
24.2377 1.51204 15.8527 
23.0451 2.90678 14.4674 
27.276 1.60665 12.8275 
28.6392 2.94842 14.284 
27.3421 1.2481 15.8784 
25.9268 2.72016 14.4991 
1.47232 4.35108 12.9881 
1.50691 7.18833 12.7381 
2.80282 5.90972 14.276 
0.100876 5.86825 14.3086 
1.39872 4.19359 15.6923 
1.41772 7.13822 15.841 
4.32538 4.44722 12.9596 
4.4028 7.25136 12.9149 
7.21679 4.23288 12.8763 
7.392 7.25151 12.8818 
5.87387 5.99556 14.3234 
4.32578 4.23275 15.9272 
4.25414 7.24488 15.8091 
7.40268 4.2893 15.8329 
7.30105 7.14217 15.8915 
10.0674 4.30393 12.8369 
10.051 7.18074 12.921 
8.63459 5.6375 14.3593 
10.1729 4.28484 15.8742 
9.9747 7.34203 15.8194 
11.3918 5.74571 14.3897 
15.7351 4.29419 12.8626 
12.9874 7.1757 13.0622 
15.7379 7.24466 13.08 
12.8603 4.29839 15.8249 
15.7727 4.35896 15.9435 
12.9749 7.01632 15.8116 
15.7545 7.03402 15.7976 
14.3082 5.44213 14.4835 
18.5741 4.35199 13.014 
18.4782 7.06401 13.0682 
20.0814 5.74094 14.4491 
17.0928 5.72474 14.4112 
18.5549 4.33924 15.8523 
18.8297 7.26748 15.8725 
21.6528 4.33045 12.9983 
24.4681 4.25968 12.8415 
21.5125 7.08943 13.0018 
24.3152 7.12492 12.8059 
21.6149 4.34182 15.8377 
24.5888 4.34496 15.9402 
21.5922 7.01071 15.844 
24.4057 7.2165 15.9323 
23.0151 5.75675 14.3896 
27.4388 4.31365 13.094 
27.4592 7.15253 12.9085 
25.859 5.71892 14.3138 
27.2903 4.17267 15.7985 
27.373 7.27173 15.8891 
0.0622921 11.3346 14.1624 
1.5605 9.91227 12.9784 
2.93789 8.43623 14.2911 
1.58145 9.79394 15.8316 
2.83803 11.3382 14.4437 
0.0328595 8.63379 14.3877 
4.29809 10.2811 13.0193 
7.2436 10.097 13.0315 
5.85815 11.6163 14.517 
4.40355 10.1049 15.6641 
7.20402 10.0108 15.8008 
5.99256 8.59098 14.4775 
11.4772 11.5557 14.2698 
10.1158 10.1989 12.7422 
10.2549 10.2222 15.646 
8.68017 8.77583 14.4634 
8.7586 11.3342 14.4597 
11.4644 8.68153 14.4232 
12.8438 9.99017 13.1217 
15.8489 10.1254 13.1554 
14.3192 8.42096 14.427 
12.9766 9.96219 15.7354 
15.7516 9.96936 15.8028 
14.1621 11.5987 14.4564 
19.9429 8.49052 14.3312 
18.4591 10.0186 12.9034 
17.1038 11.6278 14.2945 
17.2502 8.54147 14.5581 
18.6138 10.1342 15.71 
20.0031 11.5271 14.4557 
21.3844 10.0891 12.879 
24.313 9.95918 12.9938 
21.476 10.1464 15.7869 
24.5609 9.86682 15.743 
22.9274 11.4546 14.42 
22.9231 8.54762 14.5464 
27.3099 10.1321 12.7543 
25.8455 11.4352 14.295 
26.0541 8.54754 14.2997 
27.2431 10.1505 15.648 
1.54374 13.0401 12.9363 
1.46866 15.7922 13.0507 
1.36806 12.7651 15.6751 
1.35088 15.8051 15.699 
2.91772 14.3731 14.4279 
4.35981 15.7989 13.0403 
4.27318 12.8882 12.9344 
7.01871 13.0971 12.9038 
7.19392 15.8997 12.9455 
4.20277 12.8345 15.8749 
4.26493 15.7926 15.8041 
7.20117 12.8684 15.9188 
7.26083 15.7364 15.7102 
5.72345 14.3651 14.3586 
9.99645 12.9042 12.8794 
10.0926 15.8156 12.693 
8.60428 14.1293 14.2595 
10.1311 12.9851 15.8013 
10.13 15.6524 15.7387 
11.4886 14.4289 14.3604 
12.8715 12.9458 12.905 
15.6413 13.2816 12.9767 
12.8285 15.8606 12.7668 
15.8792 16.1545 12.7757 
14.2576 14.5025 14.2783 
12.8453 13.1285 15.8837 
15.6536 12.933 15.7792 
13.0153 15.8305 15.729 
15.7135 15.7869 15.8212 
18.688 13.0546 12.8405 
18.5964 15.8288 13.0219 
18.8476 13.0575 15.7265 
18.72 15.7946 15.9325 
17.1531 14.3374 14.4721 
20.2344 14.4983 14.3748 
21.4828 12.7849 12.8537 
21.4006 15.6007 12.956 
24.3829 12.8387 12.8292 
24.4432 15.8908 12.8747 
22.7846 14.287 14.3102 
21.5244 13.0415 15.6693 
21.5359 15.8 15.7662 
24.4299 15.7852 15.7036 
24.4639 12.8313 15.6847 
25.8184 14.5146 14.1583 
27.3564 12.8753 13.0485 
27.2147 15.8233 12.8566 
28.644 14.3012 14.2302 
27.2732 12.9585 15.8288 
27.3381 15.788 15.8613 
1.54577 18.5835 12.9795 
1.45077 18.6449 15.7878 
2.8287 17.1616 14.4948 
0.156712 20.2361 14.437 
2.84775 20.0463 14.4584 
4.13739 18.5347 12.9058 
7.3178 18.5747 12.8317 
5.62762 17.3837 14.352 
5.79456 19.8808 14.5094 
4.28746 18.6575 15.8034 
7.24612 18.5515 15.7423 
11.6145 17.1955 14.2968 
10.1701 18.621 12.9542 
11.5267 20.2594 14.1847 
8.60758 19.8816 14.3134 
10.2688 18.5349 15.7326 
8.63727 16.9981 14.3811 
12.7598 18.6277 12.826 
15.7915 18.7299 12.8053 
14.2239 17.3346 14.2439 
14.1417 20.2126 14.3115 
12.7864 18.7419 15.6455 
15.6442 18.8441 15.754 
18.6777 18.6173 13.1142 
17.0851 20.4099 14.3396 
20.0008 20.139 14.2771 
20.1366 17.1832 14.4461 
18.7227 18.6107 15.9043 
17.2445 17.4756 14.3895 
21.4057 18.7074 12.9111 
24.4943 18.8136 12.9789 
22.7875 20.035 14.2111 
22.898 17.3127 14.3271 
21.564 18.6863 15.7404 
24.2943 18.5237 15.7191 
28.7022 17.21 14.2447 
27.3379 18.6748 12.8527 
25.9665 17.3408 14.3558 
27.53 18.5953 15.8188 
25.9316 19.9156 14.3568 
1.57474 21.5333 12.8883 
1.4255 24.4187 12.9401 
1.67673 21.4811 16.0433 
1.41586 24.2042 15.8373 
2.83843 22.9817 14.3836 
0.00455277 22.9553 14.4536 
7.1359 24.2645 12.8566 
4.33529 24.427 12.8806 
4.26276 21.5441 12.932 
7.07951 21.4395 13.0895 
5.71971 22.9134 14.3246 
4.46028 21.5183 15.7759 
7.2545 21.4305 15.7772 
4.30261 24.2151 15.6485 
7.34913 24.4487 15.5533 
9.8493 24.3296 12.9154 
10.0311 21.5128 12.9859 
8.68603 22.9074 14.3342 
10.0249 21.5214 15.6946 
10.0304 24.3251 15.8983 
11.5206 23.1219 14.3756 
12.9676 24.4637 12.8 
15.8486 24.5044 12.743 
15.7821 21.6009 12.7783 
13.006 21.7306 12.8333 
14.3942 23.007 14.3201 
12.9655 21.6339 15.8535 
15.7617 21.7303 15.6835 
15.8543 24.279 15.7997 
12.9457 24.3127 15.7907 
18.6381 21.4773 12.8754 
18.6904 24.3629 13.0037 
17.3853 22.918 14.3205 
18.5353 21.625 15.9222 
18.6495 24.3054 15.8051 
19.9462 23.0441 14.3567 
24.3262 24.3427 12.9726 
21.4844 24.33 12.8711 
24.3248 21.4691 12.9399 
21.377 21.5265 12.9457 
22.9184 22.937 14.2746 
21.4786 21.5834 15.7806 
24.324 21.5207 15.9154 
21.4896 24.3311 15.8253 
24.5201 24.3992 16.0039 
27.2023 24.3551 12.7995 
27.2723 21.5656 13.0541 
27.3272 21.4076 15.784 
27.3361 24.2847 15.9251 
25.8794 22.8898 14.4088 
1.28864 27.2767 12.8871 
2.79967 25.9272 14.3349 
2.89291 28.6106 14.3237 
1.34781 27.0967 15.7643 
7.15395 27.2433 12.9785 
4.47075 27.1441 12.8421 
5.71797 25.7252 14.3509 
5.6972 28.6387 14.3589 
4.18497 27.1044 15.7681 
7.17999 27.2145 15.8238 
11.5548 25.7131 14.2097 
10.0714 27.3273 12.943 
8.75245 28.6287 14.6002 
10.1228 27.0366 15.7887 
8.70638 25.7444 14.3754 
11.4613 28.5671 14.4515 
15.794 27.3491 13.0327 
13.019 27.2854 12.8495 
14.37 25.7484 14.1839 
14.3808 28.6277 14.4029 
13.0266 27.0668 15.782 
15.8689 27.1046 15.6961 
18.7588 27.3771 12.8947 
18.6785 27.2657 15.7923 
17.2486 25.7873 14.4132 
20.155 25.7435 14.375 
20.158 28.6516 14.4352 
24.4638 27.1589 12.975 
21.5464 27.2594 12.9597 
22.927 28.5835 14.3214 
21.5516 27.1519 15.8257 
24.4227 27.3257 15.7289 
23.1074 25.7285 14.4596 
27.3054 27.2426 12.8427 
25.846 25.7958 14.3263 
25.9188 28.6021 14.305 
28.5723 28.6662 14.1796 
27.3186 27.1099 15.7069 
28.626 25.8009 14.3854 
1.47294 1.31358 18.7859 
2.79305 2.76715 17.0748 
0.187948 2.77919 17.4049 
2.80068 2.87807 20.0333 
4.28937 1.56113 18.5801 
7.20292 1.57632 18.7389 
5.75749 2.94498 17.1646 
5.68669 2.87448 20.0761 
5.66553 0.182341 19.9842 
10.1095 1.089 18.7913 
8.62832 2.65122 17.1598 
11.58 2.74826 17.2885 
10.0903 4.09381 18.6433 
8.76775 2.72902 19.9642 
11.4439 2.67222 20.0486 
12.8863 1.35067 18.758 
15.7736 1.33394 18.6608 
14.2603 2.77523 17.1309 
12.8891 4.04883 18.6309 
14.3406 0.0517769 17.1147 
14.3568 2.73444 20.0714 
18.6558 1.20991 18.737 
17.3473 2.82568 17.1071 
20.1206 2.82225 17.2181 
18.8054 4.01879 18.6607 
17.1615 2.80809 20.109 
20.2822 2.87256 20.2659 
21.5582 1.5103 18.8642 
23.0967 3.09228 17.3194 
24.4607 1.58603 18.7715 
22.9474 0.0132761 17.2521 
23.03 2.77745 20.3407 
27.3451 1.45112 18.7509 
25.8203 2.76411 17.2385 
25.8257 0.0754505 17.4195 
28.6219 2.83669 20.1578 
25.8468 3.00123 20.0466 
25.7243 0.20519 20.0924 
1.58947 4.21437 18.7538 
1.64779 7.07915 18.6949 
2.75184 5.69209 17.2124 
0.00119008 5.72198 17.326 
3.05984 5.75108 20.0571 
0.100494 5.73425 20.251 
4.44079 4.43369 18.6799 
4.31296 7.18867 18.6031 
7.38931 4.25432 18.8411 
5.80276 5.6816 17.0748 
7.04009 7.1103 18.6287 
5.69493 5.71964 20.1024 
8.70837 5.69201 17.3673 
9.97036 7.1988 18.5253 
11.4247 5.83976 17.2109 
8.65236 5.73992 20.0803 
11.4668 5.63003 20.0439 
15.8919 4.21248 18.459 
12.8615 7.03751 18.7019 
14.2164 5.60501 17.3322 
15.7099 7.08849 18.6773 