ITEM: TIMESTEP
56044
ITEM: NUMBER OF ATOMS
2001
ITEM: BOX BOUNDS pp pp pp
0.0000000000000000e+00 2.8712000000000000e+01
0.0000000000000000e+00 2.8712000000000000e+01
0.0000000000000000e+00 2.8712000000000000e+01
ITEM: ATOMS x y z c_cna 
1.4344 1.4346 1.43426 3 
2.86542 2.87533 2.8688 3 
0.00907391 2.8574 2.88611 3 
2.86801 0.00130132 2.86775 3 
0.00391227 2.86355 0.00358943 3 
4.29994 1.44074 1.43002 3 
7.17249 1.43932 1.42961 3 
5.73942 2.87262 2.86771 3 
5.73675 0.00387999 2.86555 3 
10.0433 1.43964 1.42938 3 
8.60854 2.87463 2.86555 3 
11.4788 2.87502 2.86518 3 
8.60803 0.00364616 2.86504 3 
11.4786 0.00362354 2.86496 3 
12.914 1.4394 1.42957 3 
15.7842 1.43833 1.43011 3 
14.3492 2.87442 2.86582 3 
14.3488 0.00286724 2.86542 3 
18.653 1.43584 1.43078 3 
17.2183 2.87227 2.86797 3 
20.082 2.86477 2.8754 3 
17.218 0.000881614 2.86645 3 
21.5195 1.43087 1.43035 3 
22.9228 2.83419 2.90916 3 
24.3835 1.42583 1.44637 3 
27.2703 1.43127 1.43936 3 
25.8334 2.8482 2.89738 3 
25.8123 2.86458 0.0250877 3 
1.42244 4.31829 1.43168 3 
1.48044 7.14986 1.47513 3 
2.8834 5.73169 2.88609 3 
2.8772 5.73676 0.0036114 3 
4.30617 4.3063 1.43425 3 
7.17298 4.31075 1.43017 3 
4.30951 7.18247 1.43928 3 
7.17325 7.18338 1.43184 3 
5.7419 5.74408 2.87055 3 
10.0432 4.31123 1.42953 3 
10.0433 7.18266 1.43007 3 
8.60889 5.74631 2.8664 3 
11.479 5.74645 2.86546 3 
15.7851 4.30983 1.43062 3 
12.9142 4.31081 1.42974 3 
12.9146 7.18199 1.42977 3 
15.7859 7.18134 1.43023 3 
14.3498 5.74608 2.8658 3 
18.6543 4.30701 1.4335 3 
18.6561 7.18071 1.43202 3 
17.2197 5.74531 2.8676 3 
20.0856 5.74388 2.87374 3 
24.3012 4.21258 1.53356 3 
21.5144 4.29493 1.44637 3 
21.5199 7.18166 1.43937 3 
22.9368 5.74476 2.89738 3 
24.3489 7.21425 1.47513 3 
22.9532 5.72364 0.0251367 3 
27.3029 4.2603 1.47512 3 
28.701 5.75176 2.8745 3 
25.6846 5.59596 0.395976 5 
27.2707 7.18205 1.39253 5 
25.8247 5.73613 2.90101 3 
1.52813 10.1516 1.53349 3 
2.8926 8.61943 2.8973 3 
2.90658 11.53 2.90897 3 
0.0169793 11.4995 0.0250547 3 
0.14478 8.76814 0.396096 5 
0.00461154 8.62805 2.90101 3 
2.87612 8.64043 0.0250654 3 
4.31491 10.0692 1.44618 3 
7.17502 10.0571 1.4332 3 
5.74382 8.6203 2.87356 3 
5.7474 11.4994 2.8751 3 
10.0442 10.0542 1.43036 3 
8.60958 8.61883 2.86737 3 
11.4794 8.61799 2.86567 3 
8.611 11.4919 2.86764 3 
11.4801 11.4896 2.86557 3 
12.915 10.0532 1.42961 3 
15.7861 10.0527 1.42956 3 
14.3502 8.61758 2.86549 3 
14.3505 11.489 2.86509 3 
18.6563 10.0533 1.43021 3 
17.2204 8.61777 2.86651 3 
20.0875 8.62005 2.8706 3 
17.2207 11.4894 2.86552 3 
20.0898 11.4915 2.8677 3 
21.5232 10.0578 1.43424 3 
22.946 8.6325 2.88608 3 
22.9639 11.4889 2.86877 3 
24.4069 10.0459 1.43164 3 
22.9522 8.62732 0.00362188 3 
28.7079 11.516 2.89728 3 
27.2384 10.1038 1.47511 3 
25.8403 8.61242 2.87449 3 
25.8202 11.5068 2.88606 3 
25.8254 11.5006 0.0035635 3 
1.44571 12.9383 1.44621 3 
1.43359 15.7984 1.43331 3 
2.87595 14.3708 2.87517 3 
4.30487 15.7997 1.43053 3 
4.30986 12.9333 1.43008 3 
7.17636 12.9283 1.43043 3 
7.17624 15.7996 1.43004 3 
5.74374 14.3671 2.86795 3 
10.0452 12.9258 1.42978 3 
10.0457 15.7975 1.42951 3 
8.61144 14.3632 2.86611 3 
11.4806 14.3612 2.86514 3 
12.9154 12.9246 1.42936 3 
15.786 12.9243 1.42928 3 
12.9157 15.7962 1.42922 3 
15.7863 15.7957 1.42917 3 
14.3507 14.3604 2.8648 3 
18.6567 12.9247 1.42956 3 
18.6574 15.7953 1.42925 3 
17.2212 14.3604 2.86496 3 
20.0924 14.3602 2.86551 3 
21.5292 12.9234 1.42996 3 
21.5278 15.7959 1.42955 3 
22.9611 14.3629 2.86769 3 
24.3948 12.9296 1.4342 3 
24.3992 15.7964 1.43017 3 
28.7087 14.3672 2.87362 3 
27.271 12.9329 1.43928 3 
27.2718 15.7966 1.43191 3 
25.8325 14.3653 2.87056 3 
1.4307 18.6675 1.4305 3 
2.86841 17.2343 2.86775 3 
2.8662 20.1034 2.86569 3 
4.30231 18.6685 1.42995 3 
7.1741 18.669 1.42963 3 
5.73989 17.2347 2.86618 3 
5.73781 20.1039 2.86527 3 
10.0451 18.6684 1.42939 3 
8.6107 17.234 2.86544 3 
11.4806 17.2325 2.86488 3 
8.60917 20.1039 2.86494 3 
11.4799 20.1032 2.86475 3 
12.9155 18.6674 1.42923 3 
15.7862 18.6667 1.4292 3 
14.3509 17.2316 2.86467 3 
14.3505 20.1024 2.86471 3 
18.6571 18.6666 1.42925 3 
17.2216 17.2312 2.86472 3 
20.0922 17.2315 2.86503 3 
17.2213 20.102 2.86481 3 
20.0923 20.1021 2.86499 3 
21.5282 18.6667 1.42935 3 
24.3997 18.6666 1.42956 3 
22.9631 17.232 2.86556 3 
22.9636 20.1022 2.86521 3 
28.7065 20.1028 2.86573 3 
28.7073 17.2329 2.86747 3 
27.2711 18.6667 1.43016 3 
25.8348 17.2323 2.86647 3 
25.835 20.1024 2.8655 3 
1.42971 21.5383 1.4297 3 
2.86558 22.9738 2.86514 3 
1.42933 24.4095 1.4296 3 
4.30092 24.4094 1.4294 3 
4.3012 21.5387 1.42953 3 
7.17275 21.5389 1.42938 3 
5.73699 22.974 2.86491 3 
7.1722 24.4096 1.42931 3 
10.044 21.5388 1.42929 3 
8.60817 22.9742 2.86474 3 
11.479 22.9738 2.86473 3 
10.0433 24.4095 1.42926 3 
12.9148 21.5381 1.4293 3 
15.7856 21.5375 1.42934 3 
14.3497 22.973 2.86487 3 
15.7845 24.4078 1.42956 3 
12.9141 24.4088 1.42934 3 
18.6567 21.5373 1.42943 3 
17.2204 22.9723 2.86514 3 
20.0916 22.9723 2.86546 3 
18.6554 24.4072 1.42979 3 
21.5281 21.5374 1.42956 3 
24.3994 21.5377 1.42974 3 
22.9631 22.9727 2.86584 3 
24.3984 24.4086 1.43061 3 
21.527 24.4077 1.43012 3 
28.7062 22.9736 2.86549 3 
27.2705 21.538 1.4298 3 
25.8347 22.9732 2.8658 3 
27.2699 24.4093 1.43021 3 
1.42985 27.2797 1.43025 3 
2.86596 25.8441 2.86556 3 
4.30125 27.2802 1.42964 3 
7.17184 27.2808 1.42933 3 
5.73695 25.8446 2.86504 3 
10.0431 27.2804 1.4293 3 
8.60773 25.8449 2.86477 3 
11.4786 25.8445 2.8648 3 
12.9138 27.2799 1.42943 3 
15.7838 27.2787 1.42978 3 
14.3489 25.8436 2.86511 3 
20.0857 28.7091 2.86829 3 
18.6532 27.2766 1.43034 3 
17.2188 25.8422 2.86573 3 
20.0896 25.8415 2.86648 3 
22.9534 28.7054 2.87542 3 
21.5245 27.2765 1.43078 3 
22.9609 25.8418 2.86798 3 
24.3956 27.2778 1.43348 3 
25.8325 28.709 2.87375 3 
28.7086 28.7109 2.87062 3 
28.7064 25.8438 2.8665 3 
27.2693 27.2795 1.43201 3 
25.8339 25.8432 2.8676 3 
1.43694 1.43156 4.31064 3 
1.43239 1.43616 7.1772 3 
2.86753 2.87326 5.74189 3 
4.30254 1.43815 4.30367 3 
7.17391 1.43791 4.30213 3 
4.30303 1.43765 7.17536 3 
7.17456 1.43735 7.17435 3 
5.74088 2.87148 5.74127 3 
5.7381 0.00250409 5.73812 3 
10.0438 1.43884 4.30093 3 
10.0442 1.4382 7.17279 3 
8.60975 2.87354 5.73805 3 
11.4791 2.87433 5.73687 3 
11.4788 0.00298857 5.73648 3 
8.60875 0.00276232 5.73695 3 
12.9138 1.43875 4.30103 3 
15.7832 1.43733 4.30253 3 
12.9137 1.43831 7.17264 3 
15.7826 1.43736 7.17432 3 
14.3486 2.87407 5.73751 3 
14.3483 0.00218967 5.73728 3 
18.6497 1.4329 4.3071 3 
18.6505 1.43511 7.17818 3 
17.2169 2.87259 5.74039 3 
20.0825 2.86921 5.74714 3 
21.509 1.4204 4.32106 3 
24.3926 1.42321 4.31913 3 
21.5212 1.43261 7.18071 3 
24.3967 1.43346 7.17945 3 
22.9539 2.8653 5.74983 3 
28.7093 2.87009 5.74484 3 
27.2744 1.42733 4.31483 3 
27.2714 1.43492 7.17811 3 
25.8331 2.86788 5.74636 3 
1.43055 4.31026 4.3087 3 
1.43881 7.17979 4.31275 3 
1.43111 4.30977 7.17671 3 
1.43241 7.18243 7.17642 3 
2.87077 5.74352 5.74477 3 
7.17585 4.30866 7.17574 3 
4.31351 7.17844 4.31471 3 
7.17552 4.30868 4.30387 3 
4.30924 4.3038 4.31059 3 
7.17669 7.1816 4.30536 3 
4.30594 7.18154 7.17801 3 
4.30463 4.30842 7.17716 3 
5.74315 5.74346 5.74354 3 
7.17695 7.18135 7.17671 3 
10.0446 7.18211 4.302 3 
10.0442 4.31022 4.30148 3 
10.0448 4.30973 7.17338 3 
8.61057 5.7454 5.73896 3 
10.0454 7.18181 7.17384 3 
11.4795 5.74605 5.73717 3 
12.9142 4.31039 4.30123 3 
15.7839 4.30973 4.30257 3 
12.9145 7.18205 4.30125 3 
15.7846 7.18203 4.3021 3 
12.9141 4.31012 7.17279 3 
15.7831 4.30994 7.17418 3 
12.9145 7.18206 7.17286 3 
14.3491 5.74615 5.73741 3 
15.7837 7.18235 7.17386 3 
18.6512 4.30788 4.30691 3 
18.6527 7.18259 4.30547 3 
18.6513 4.30927 7.17765 3 
17.2179 5.74602 5.73981 3 
18.6524 7.1829 7.17677 3 
20.0845 5.74603 5.7454 3 
24.3858 4.29722 4.31834 3 
21.5118 4.30399 4.31911 3 
21.5159 7.18581 4.31481 3 
24.3906 7.18447 4.31278 3 
21.522 4.30805 7.17942 3 
24.3957 4.30719 7.17769 3 
21.5235 7.18277 7.1781 3 
22.9564 5.74456 5.74635 3 
24.3969 7.18192 7.17648 3 
28.7066 5.74625 5.74229 3 
27.273 4.30201 4.31279 3 
27.2707 7.18213 4.30608 3 
27.2704 4.30847 7.17649 3 
25.8319 5.74335 5.74306 3 
27.2707 7.18219 7.1752 3 
1.44357 10.067 4.31821 3 
1.43367 10.0571 7.17755 3 
2.87299 8.61973 5.74624 3 
2.87553 11.4989 5.74962 3 
4.31762 10.0603 4.31892 3 
7.17822 10.0564 4.30669 3 
4.30742 10.0562 7.17926 3 
5.74497 8.61824 5.74527 3 
7.17805 10.055 7.17756 3 
5.74696 11.495 5.74692 3 
10.0453 10.0544 4.30238 3 
8.61141 8.61822 5.7397 3 
10.0461 10.0543 7.17417 3 
11.48 8.61801 5.73737 3 
8.61244 11.4916 5.74022 3 
11.4806 11.49 5.7374 3 
12.915 10.0537 4.30114 3 
15.785 10.0538 4.30148 3 
12.915 10.054 7.17281 3 
14.3496 8.61806 5.73718 3 
15.7843 10.0544 7.17342 3 
14.3501 11.4897 5.73683 3 
18.6538 10.0554 4.30389 3 
17.2187 8.61874 5.73902 3 
18.6534 10.0555 7.17579 3 
20.0862 8.62076 5.74361 3 
17.2195 11.4905 5.73805 3 
20.0884 11.4927 5.74128 3 
21.5201 10.0604 4.3106 3 
24.3988 10.054 4.30868 3 
21.5247 10.0559 7.17721 3 
22.9586 8.62077 5.74481 3 
22.9617 11.491 5.74189 3 
24.3982 10.0546 7.17673 3 
28.7082 11.4964 5.74625 3 
27.2683 10.0623 4.31274 3 
28.7095 8.62096 5.743 3 
25.8347 8.61809 5.7423 3 
27.2709 10.0559 7.17643 3 
25.832 11.4942 5.74481 3 
1.43675 12.941 4.31895 3 
1.43283 15.8015 4.30675 3 
1.43277 12.9308 7.17928 3 
1.43154 15.8013 7.17754 3 
2.87158 14.3703 5.74693 3 
4.3204 12.9438 4.32077 3 
4.30789 15.803 4.30683 3 
7.17974 12.9313 4.30679 3 
7.17736 15.8006 4.30308 3 
4.30823 12.9316 7.18049 3 
4.30572 15.8022 7.17797 3 
7.17888 12.9291 7.17799 3 
5.74686 14.3702 5.74616 3 
7.17819 15.8015 7.17678 3 
10.0462 12.9268 4.30226 3 
10.0462 15.798 4.30128 3 
10.0467 12.9268 7.17421 3 
8.61291 14.3645 5.73977 3 
10.0468 15.7986 7.17361 3 
11.4811 14.3619 5.73709 3 
12.9155 12.9253 4.30086 3 
15.7855 12.9252 4.30086 3 
12.9157 15.7966 4.30049 3 
15.7859 15.7961 4.30041 3 
12.9155 12.9258 7.1726 3 
15.7849 12.9258 7.1728 3 
12.9158 15.7971 7.17217 3 
14.3505 14.361 5.73638 3 
15.7855 15.7967 7.17209 3 
18.6553 12.9261 4.3021 3 
18.6565 15.7961 4.30085 3 
18.6546 12.9267 7.17439 3 
17.2204 14.3613 5.73693 3 
18.6558 15.7968 7.17281 3 
20.091 14.3616 5.73813 3 
21.5267 12.926 4.30364 3 
21.5264 15.7974 4.30213 3 
24.3923 12.9327 4.3106 3 
24.3971 15.7989 4.3039 3 
21.5261 12.9266 7.1754 3 
21.5258 15.7981 7.17442 3 
22.96 14.3644 5.74131 3 
24.3968 12.9281 7.17722 3 
24.3972 15.7993 7.1758 3 
28.7067 14.3683 5.74531 3 
27.2669 12.9369 4.31475 3 
27.27 15.8 4.30541 3 
27.27 12.9293 7.17806 3 
25.8319 14.3666 5.74361 3 
27.2698 15.8003 7.17674 3 
1.43095 18.6686 4.30244 3 
1.43086 18.6694 7.17411 3 
2.86819 17.2357 5.74022 3 
2.86668 20.1039 5.73736 3 
4.3034 18.6694 4.30232 3 
7.17474 18.6694 4.30134 3 
4.30343 18.67 7.17416 3 
5.7412 17.2361 5.7398 3 
7.17536 18.67 7.1736 3 
5.73857 20.1043 5.73709 3 
10.0454 18.6686 4.30066 3 
8.61134 17.2346 5.73765 3 
10.0457 18.6689 7.17235 3 
11.4809 17.2329 5.73639 3 
8.60961 20.1041 5.7364 3 
11.4801 20.1033 5.73594 3 
12.9155 18.6675 4.30027 3 
15.786 18.6669 4.30025 3 
12.9155 18.6678 7.17168 3 
14.3507 17.2319 5.73597 3 
15.7856 18.6672 7.17168 3 
14.3503 20.1025 5.73585 3 
18.6566 18.6669 4.30053 3 
17.221 17.2317 5.7362 3 
18.656 18.6672 7.17219 3 
20.0913 17.2322 5.737 3 
17.2208 20.1021 5.73613 3 
20.0916 20.1022 5.73657 3 
21.5274 18.6673 4.30098 3 
24.3988 18.6676 4.30153 3 
21.5268 18.6678 7.17288 3 
22.9621 17.2332 5.7381 3 
22.963 20.1026 5.73694 3 
24.3983 18.6683 7.17344 3 
28.7066 20.1034 5.73734 3 
28.7067 17.2347 5.73973 3 
27.2706 18.668 4.30205 3 
25.8339 17.234 5.73901 3 
27.2704 18.6688 7.17384 3 
25.8347 20.1029 5.73719 3 
1.4303 21.5383 4.30115 3 
1.43044 24.4084 4.30147 3 
1.43065 21.5384 7.17274 3 
2.86635 22.9734 5.73681 3 
1.431 24.4076 7.17338 3 
4.30191 21.5387 4.30091 3 
7.17326 21.539 4.30054 3 
4.30177 24.4088 4.3009 3 
7.17272 24.4092 4.30045 3 
4.30245 21.5388 7.17253 3 
7.1738 21.539 7.17214 3 
5.73769 22.9738 5.73638 3 
7.17331 24.4088 7.17205 3 
4.30247 24.4083 7.17273 3 
10.0442 21.5388 4.30029 3 
10.0435 24.4092 4.30025 3 
10.0445 21.5388 7.17166 3 
8.60858 22.974 5.73597 3 
11.4791 22.9736 5.73583 3 
10.0437 24.4089 7.17162 3 
12.9148 21.5381 4.30024 3 
15.7853 21.5374 4.30043 3 
12.914 24.4086 4.3004 3 
15.7842 24.4075 4.3009 3 
12.9147 21.538 7.17152 3 
15.7849 21.5373 7.17182 3 
14.3494 22.9728 5.73609 3 
15.7838 24.4071 7.17258 3 
12.9139 24.4083 7.17176 3 
18.6562 21.5372 4.30075 3 
18.6556 21.537 7.17238 3 
17.2199 22.972 5.73667 3 
20.0909 22.9718 5.73739 3 
18.6541 24.4061 7.17389 3 
18.6548 24.4067 4.30163 3 
21.5274 21.5373 4.3011 3 
24.399 21.5376 4.30126 3 
21.526 24.4066 4.3026 3 
24.3984 24.4074 4.3026 3 
21.527 21.5372 7.17274 3 
22.9628 22.9721 5.73758 3 
24.3986 24.4065 7.17425 3 
24.3988 21.5375 7.17286 3 
21.5261 24.4061 7.17443 3 
28.7067 22.973 5.73716 3 
27.2706 21.538 4.30125 3 
27.2707 24.408 4.3021 3 
27.2707 21.5379 7.17284 3 
25.8348 22.9726 5.73743 3 
27.271 24.4071 7.17386 3 
1.432 27.2772 4.30392 3 
2.8692 28.7118 5.74129 3 
1.43207 27.2768 7.17576 3 
2.8671 25.8428 5.73803 3 
4.30267 27.2787 4.30214 3 
7.17263 27.28 4.30086 3 
4.30329 27.278 7.17435 3 
5.73785 25.8438 5.73691 3 
7.17335 27.2792 7.17274 3 
10.0434 27.2799 4.3005 3 
8.60822 25.8444 5.73617 3 
10.0437 27.2794 7.17209 3 
11.4787 25.8441 5.73606 3 
12.9137 27.2794 4.30069 3 
15.7833 27.2781 4.30159 3 
12.9135 27.2789 7.17227 3 
14.3486 25.8432 5.73662 3 
15.7827 27.2774 7.17381 3 
18.6521 27.2755 4.30342 3 
20.0826 28.706 5.74647 3 
17.2165 28.7116 5.74005 3 
17.2182 25.8415 5.73796 3 
18.6513 27.2747 7.17706 3 
20.0883 25.84 5.74012 3 
22.9579 28.7059 5.74719 3 
21.5216 27.2731 4.30715 3 
24.3965 27.2746 4.30694 3 
21.5238 27.274 7.17824 3 
22.9613 25.8404 5.74047 3 
24.3979 27.2748 7.17771 3 
28.7093 28.7096 5.74363 3 
28.7074 25.8421 5.739 3 
27.2712 27.2761 4.30549 3 
25.8346 28.7079 5.74543 3 
25.8347 25.8413 5.73984 3 
27.2715 27.2758 7.17678 3 
2.86692 2.87388 8.6108 3 
2.86738 0.00162581 8.61052 3 
1.43083 1.43801 10.0453 3 
2.86633 2.87445 11.4798 3 
2.86652 0.0025473 11.4797 3 
4.30239 1.43829 10.045 3 
5.73901 2.87335 8.61051 3 
5.73818 0.00240874 8.60933 3 
7.17374 1.4381 10.0445 3 
5.73799 2.8742 11.4797 3 
5.73783 0.00276521 11.4794 3 
8.60975 2.87357 8.60942 3 
11.4792 2.87405 8.60839 3 
11.4788 0.00260259 8.60801 3 
8.60901 0.00244201 8.60857 3 
10.0442 1.43818 10.0439 3 
8.60904 2.87401 11.4795 3 
11.4791 2.87405 11.4792 3 
11.4788 0.00255176 11.479 3 
8.6087 0.00268291 11.4792 3 
14.3484 2.87405 8.60884 3 
14.3481 0.00207037 8.60873 3 
12.9137 1.4382 10.0438 3 
15.783 1.43778 10.0448 3 
14.3486 2.87407 11.4793 3 
14.3483 0.00219158 11.4793 3 
17.2174 2.87342 8.61088 3 
20.0878 2.87243 8.61256 3 
17.2184 0.00160934 11.4799 3 
20.0898 0.00120511 11.4802 3 
18.6533 1.43704 10.046 3 
17.2186 2.87386 11.4799 3 
20.09 2.87356 11.4801 3 
17.2171 0.00066944 8.61087 3 
22.9604 2.87185 8.61227 3 
22.9622 0.00136661 11.4802 3 
21.5252 1.43658 10.0463 3 
22.9621 2.87352 11.48 3 
24.3981 1.43696 10.0458 3 
28.7069 2.87336 8.611 3 
28.7075 0.000864342 8.61124 3 
25.834 2.87257 8.61124 3 
25.8347 4.70944e-05 8.61188 3 
28.7065 2.87431 11.4798 3 
27.2707 1.43756 10.0455 3 
25.8344 2.87388 11.4798 3 
28.7068 0.00222601 11.4798 3 
25.8347 0.00181045 11.48 3 
2.86754 5.74596 8.61095 3 
1.43057 4.31034 10.0451 3 
1.43096 7.18252 10.0448 3 
2.86654 5.74643 11.4798 3 
5.73985 5.74539 8.6112 3 
4.30328 7.18224 10.0455 3 
7.1743 4.30969 10.0451 3 
4.30274 4.31001 10.0453 3 
7.17494 7.18183 10.0455 3 
5.7384 5.74606 11.4799 3 
8.61048 5.74548 8.61005 3 
11.4797 5.74589 8.60865 3 
10.0447 4.30979 10.0443 3 
10.0452 7.1818 10.0446 3 
8.60955 5.74582 11.4797 3 
11.4796 5.74589 11.4793 3 
14.3489 5.74615 8.6088 3 
12.9141 4.31004 10.0439 3 
15.7834 4.31007 10.0447 3 
12.9146 7.18202 10.044 3 
15.7839 7.18229 10.0446 3 
14.349 5.74608 11.4794 3 
17.2181 5.74627 8.61053 3 
20.0886 5.74602 8.61187 3 
18.6537 4.30984 10.0458 3 
18.6543 7.18238 10.0455 3 
17.2191 5.74618 11.4798 3 
20.0904 5.74601 11.48 3 
22.9611 5.74548 8.61124 3 
21.5255 4.30946 10.0459 3 
21.5261 7.18212 10.0455 3 
22.9624 5.74583 11.4798 3 
24.3984 7.18188 10.0449 3 
24.398 4.30944 10.0452 3 
28.7065 5.7464 11.4796 3 
28.7066 5.74626 8.61019 3 
25.834 5.74547 8.61 3 
27.2704 4.30995 10.0449 3 
27.2707 7.18221 10.0445 3 
25.8345 5.746 11.4795 3 
2.86833 8.61887 8.61112 3 
2.86904 11.4925 8.61211 3 
1.43146 10.0549 10.0451 3 
2.86698 8.61852 11.4798 3 
2.86734 11.4908 11.48 3 
5.74077 8.61828 8.6118 3 
5.74161 11.4918 8.61245 3 
4.3039 10.0548 10.0458 3 
7.1756 10.0544 10.0458 3 
5.73893 8.61827 11.4801 3 
5.73943 11.4907 11.4802 3 
11.4801 8.61795 11.4794 3 
8.6112 8.61795 8.61053 3 
11.4802 8.61797 8.60883 3 
8.6119 11.4908 8.61085 3 
11.4808 11.4901 8.60888 3 
10.0458 10.0541 10.0448 3 
8.61012 8.61798 11.4799 3 
8.61064 11.4904 11.48 3 
11.4806 11.4901 11.4794 3 
14.3494 8.6182 8.60866 3 
14.3499 11.49 8.60843 3 
12.915 10.0541 10.044 3 
15.7844 10.0543 10.0443 3 
14.3495 8.61813 11.4793 3 
14.35 11.49 11.4792 3 
17.2187 8.61866 8.61008 3 
20.0894 8.61887 8.61127 3 
17.2194 11.4905 8.60948 3 
20.0902 11.4909 8.61058 3 
18.6548 10.0545 10.0451 3 
17.2196 8.61829 11.4797 3 
20.0908 8.61818 11.4799 3 
17.22 11.4901 11.4795 3 
20.0911 11.49 11.4798 3 
22.9618 8.61841 8.61103 3 
22.9623 11.4904 8.61085 3 
21.5265 10.0543 10.0454 3 
22.9628 8.61796 11.4798 3 
22.9629 11.4899 11.4798 3 
24.3987 10.0541 10.0451 3 
28.707 11.4904 11.4798 3 
28.7069 8.61838 11.4795 3 
28.7074 11.4917 8.61114 3 
28.7074 8.61892 8.60994 3 
25.8347 8.61814 8.61021 3 
25.8344 11.491 8.61099 3 
27.2709 10.0544 10.0448 3 
25.8348 8.61801 11.4796 3 
25.8349 11.49 11.4798 3 
2.86844 14.3649 8.61243 3 
1.43142 12.9273 10.0458 3 
1.43105 15.7989 10.0458 3 
2.86731 14.3628 11.4802 3 
5.74173 14.3651 8.61255 3 
4.30428 12.9277 10.0462 3 
4.30381 15.7994 10.0459 3 
7.17607 12.9272 10.046 3 
7.17596 15.7993 10.0456 3 
5.73961 14.363 11.4803 3 
8.61221 14.3635 8.61073 3 
11.4812 14.362 8.60865 3 
10.0463 12.9264 10.0448 3 
10.0463 15.7982 10.0445 3 
8.61089 14.3626 11.4799 3 
11.4809 14.362 11.4793 3 
14.3504 14.3615 8.60803 3 
12.9155 12.9259 10.0439 3 
15.785 12.9259 10.044 3 
12.9157 15.7973 10.0436 3 
15.7853 15.797 10.0436 3 
14.3503 14.3616 11.4791 3 
17.2201 14.3616 8.60863 3 
20.0909 14.3617 8.60942 3 
18.6553 12.9261 10.0446 3 
18.6557 15.7969 10.044 3 
17.2203 14.3615 11.4793 3 
20.0912 14.3614 11.4795 3 
22.9618 14.3626 8.61059 3 
21.5267 12.9259 10.0451 3 
21.5266 15.7973 10.0446 3 
22.9627 14.3616 11.4798 3 
24.3982 15.7978 10.0451 3 
24.3984 12.9263 10.0454 3 
28.7068 14.3641 8.6118 3 
28.7068 14.3623 11.48 3 
25.8339 14.3633 8.61126 3 
27.2707 12.9267 10.0455 3 
27.2704 15.7984 10.0455 3 
25.8346 14.3619 11.4799 3 
2.86744 17.2352 8.61081 3 
2.86679 20.1041 8.60879 3 
1.43077 18.6691 10.0447 3 
2.86702 17.234 11.4799 3 
2.8668 20.1039 11.4793 3 
5.74016 17.2355 8.61069 3 
5.73874 20.1044 8.60859 3 
4.30309 18.6696 10.0447 3 
7.17493 18.6696 10.0445 3 
5.73923 17.2342 11.4799 3 
5.73865 20.1042 11.4793 3 
8.61152 17.2348 8.6097 3 
11.481 17.2332 8.60812 3 
8.60996 20.1043 8.60809 3 
11.4802 20.1035 8.60744 3 
10.0457 18.669 10.0438 3 
8.61065 17.234 11.4796 3 
11.4808 17.2332 11.4791 3 
8.60985 20.1041 11.4791 3 
11.4801 20.1035 11.4789 3 
14.3505 17.2323 8.60754 3 
14.3501 20.1026 8.6073 3 
12.9154 18.668 10.0432 3 
15.7853 18.6674 10.0432 3 
14.3504 17.2325 11.4789 3 
14.3499 20.1027 11.4788 3 
17.2206 17.2321 8.60783 3 
20.091 17.2326 8.60867 3 
17.2203 20.1022 8.60766 3 
20.0912 20.1023 8.60813 3 
18.6557 18.6673 10.0436 3 
17.2205 17.2322 11.479 3 
20.0911 17.2323 11.4793 3 
17.2201 20.1022 11.479 3 
20.0911 20.1023 11.4791 3 
22.9621 17.2333 8.60948 3 
22.9627 20.1027 8.60847 3 
21.5267 18.6677 10.044 3 
22.9625 17.2326 11.4795 3 
22.9626 20.1026 11.4792 3 
24.3984 18.6682 10.0444 3 
28.7066 17.2346 8.61051 3 
28.7067 20.1036 8.60877 3 
25.8341 17.2339 8.61009 3 
25.8346 20.1031 8.60867 3 
28.7067 20.1035 11.4793 3 
28.7067 17.2335 11.4798 3 
27.2705 18.6686 10.0446 3 
25.8344 17.2331 11.4797 3 
25.8346 20.103 11.4793 3 
2.86672 22.9732 8.60833 3 
1.43098 24.4078 10.0443 3 
1.43078 21.5384 10.0439 3 
2.86676 22.9733 11.4791 3 
5.73815 22.9737 8.60795 3 
7.17358 24.4087 10.0434 3 
4.30263 21.5388 10.0438 3 
4.30256 24.4083 10.0439 3 
7.17402 21.539 10.0435 3 
5.73825 22.9737 11.479 3 
8.60898 22.9739 8.60749 3 
11.4792 22.9735 8.60725 3 
10.0439 24.4087 10.0431 3 
10.0447 21.5388 10.0432 3 
8.60911 22.9738 11.4788 3 
11.4792 22.9734 11.4787 3 
14.3492 22.9726 8.60756 3 
15.7836 24.407 10.044 3 
12.9138 24.4081 10.0432 3 
14.3491 22.9725 11.4789 3 
12.9146 21.538 10.043 3 
15.7846 21.5373 10.0433 3 
17.2194 22.9718 8.60831 3 
20.0907 22.9716 8.60883 3 
20.0908 22.9718 11.4794 3 
17.2194 22.9719 11.4792 3 
18.6545 24.4064 10.0447 3 
18.6553 21.537 10.0437 3 
22.9627 22.9719 8.60894 3 
21.5268 21.5371 10.0439 3 
21.5264 24.4065 10.0449 3 
24.3987 24.4068 10.0448 3 
22.9627 22.972 11.4794 3 
24.3987 21.5375 10.044 3 
28.7069 22.9728 11.4793 3 
28.7069 22.9727 8.60862 3 
25.8348 22.9723 8.60882 3 
27.2707 21.5379 10.044 3 
25.8348 22.9724 11.4793 3 
27.271 24.4073 10.0445 3 
2.86714 25.8428 8.60938 3 
2.86673 25.8434 11.4794 3 
1.43108 27.2782 10.045 3 
5.73823 25.8435 8.60854 3 
7.17338 27.2792 10.0438 3 
5.73801 25.8438 11.4791 3 
4.30258 27.2788 10.0445 3 
8.6086 25.844 8.60774 3 
11.4787 25.8437 8.60756 3 
10.0438 27.2791 10.0434 3 
8.60867 25.844 11.4789 3 
11.4787 25.8436 11.4788 3 
14.3483 25.8428 8.60824 3 
12.9135 27.2788 10.0436 3 
15.783 27.2779 10.0446 3 
14.3484 25.8429 11.4791 3 
20.0877 28.7111 8.61273 3 
17.2179 25.8413 8.60991 3 
20.0893 25.8406 8.61094 3 
20.0902 25.8418 11.4799 3 
18.6534 27.2769 10.0458 3 
17.2187 25.8421 11.4797 3 
22.9611 28.7112 8.6126 3 
22.9621 25.8408 8.61097 3 
22.9625 25.8421 11.4799 3 
24.3985 27.2771 10.0458 3 
21.5257 27.2767 10.0461 3 
28.7073 25.8421 8.61004 3 
25.8349 25.8414 8.61055 3 
28.707 25.8429 11.4796 3 
25.8349 25.8425 11.4798 3 
27.271 27.2777 10.0454 3 
1.43049 1.43844 12.9144 3 
1.43089 1.43784 15.7835 3 
2.86634 2.87438 14.3491 3 
2.86655 0.00247993 14.3491 3 
4.30207 1.43855 12.9144 3 
7.17336 1.4384 12.9144 3 
5.73801 2.87416 14.3491 3 
4.3024 1.43815 15.7839 3 
7.17376 1.43802 15.7842 3 
5.73782 0.00272767 14.3493 3 
10.0439 1.43827 12.9143 3 
11.4788 0.00253905 14.3496 3 
11.4791 2.874 14.3495 3 
10.0441 1.43812 15.7848 3 
8.60905 2.87399 14.3493 3 
8.6087 0.00266298 14.3495 3 
12.9137 1.43818 12.9143 3 
15.7834 1.43794 12.9143 3 
12.9137 1.43814 15.7849 3 
15.783 1.43771 15.7839 3 
14.3486 2.87401 14.3493 3 
14.3483 0.0021862 14.3494 3 
17.2184 0.00158407 14.3488 3 
18.6542 1.4376 12.9144 3 
20.0899 2.8735 14.3486 3 
20.0898 0.00116013 14.3485 3 
18.6533 1.43697 15.7827 3 
17.2187 2.87381 14.3488 3 
21.5261 1.43747 12.9144 3 
24.3984 1.43774 12.9144 3 
22.9621 2.87345 14.3489 3 
21.5251 1.43648 15.7825 3 
24.3981 1.43682 15.783 3 
22.9622 0.00130665 14.3486 3 
27.2706 1.43815 12.9144 3 
27.2708 1.43738 15.7834 3 
25.8345 2.87379 14.3491 3 
28.7065 2.87419 14.3492 3 
28.7068 0.00213541 14.3489 3 
25.8347 0.00172359 14.3488 3 
1.43038 4.3105 12.9145 3 
1.43064 7.18247 12.9145 3 
1.4306 4.3102 15.7838 3 
1.43098 7.18247 15.7841 3 
2.86654 5.7464 14.3492 3 
4.30221 4.31035 12.9145 3 
4.3026 7.18235 12.9145 3 
7.17371 4.31002 12.9145 3 
7.17421 7.18202 12.9145 3 
4.30274 4.30994 15.7836 3 
4.30329 7.18221 15.7835 3 
7.17433 4.30964 15.7838 3 
7.17503 7.18186 15.7835 3 
5.73842 5.74608 14.3491 3 
10.0444 4.30989 12.9144 3 
10.0449 7.18186 12.9144 3 
10.0447 4.30973 15.7845 3 
10.0453 7.1818 15.7843 3 
11.4796 5.74587 14.3495 3 
8.60959 5.74582 14.3492 3 
12.9141 4.31 12.9144 3 
15.7838 4.31006 12.9144 3 
12.9146 7.18199 12.9144 3 
15.7843 7.18217 12.9144 3 
14.349 5.74605 14.3494 3 
12.9141 4.30994 15.7848 3 
15.7834 4.30997 15.784 3 
12.9146 7.18199 15.7848 3 
15.7839 7.18225 15.7842 3 
18.6546 4.30994 12.9144 3 
18.655 7.18218 12.9144 3 
20.0904 5.74596 14.3489 3 
18.6537 4.30974 15.783 3 
18.6543 7.18233 15.7834 3 
17.2191 5.74613 14.349 3 
24.3985 4.30985 12.9145 3 
21.5263 4.30977 12.9144 3 
21.5267 7.18198 12.9145 3 
24.3987 7.18191 12.9145 3 
21.5255 4.30937 15.783 3 
24.398 4.30933 15.7837 3 
21.5261 7.18208 15.7834 3 
24.3984 7.18183 15.7841 3 
22.9624 5.7458 14.3492 3 
28.7066 5.74635 14.3494 3 
27.2705 4.31023 12.9145 3 
27.2707 7.18219 12.9145 3 
27.2705 4.30981 15.784 3 
27.2707 7.18215 15.7844 3 
25.8346 5.74596 14.3494 3 
1.431 10.0544 12.9145 3 
2.86735 11.4908 14.349 3 
1.43146 10.0549 15.7839 3 
2.86699 8.61851 14.3492 3 
4.30306 10.0545 12.9145 3 
7.17474 10.0543 12.9145 3 
5.73945 11.4907 14.3488 3 
4.30393 10.0549 15.7832 3 
7.17568 10.0544 15.7832 3 
5.73897 8.61828 14.349 3 
8.61067 11.4904 14.349 3 
10.0454 10.0541 12.9144 3 
11.4802 8.61796 14.3494 3 
11.4806 11.4901 14.3494 3 
10.0459 10.0541 15.7841 3 
8.61018 8.61801 14.3491 3 
12.9151 10.0541 12.9144 3 
15.7847 10.0542 12.9144 3 
14.3495 8.61813 14.3495 3 
14.35 11.4901 14.3496 3 
12.9151 10.0541 15.7848 3 
15.7845 10.0543 15.7844 3 
18.6554 10.0541 12.9145 3 
20.0908 8.61818 14.349 3 
18.6548 10.0545 15.7838 3 
17.22 11.4901 14.3493 3 
20.0911 11.49 14.3492 3 
17.2196 8.61829 14.3492 3 
22.9629 11.4898 14.3491 3 
21.527 10.054 12.9145 3 
24.399 10.0538 12.9145 3 
21.5265 10.0543 15.7836 3 
24.3988 10.054 15.7838 3 
22.9628 8.61793 14.3492 3 
27.2709 10.0541 12.9145 3 
25.8349 8.61798 14.3494 3 
28.7069 8.61835 14.3494 3 
25.8349 11.49 14.3492 3 
27.271 10.0544 15.7841 3 
28.707 11.4904 14.3492 3 
1.43107 12.9264 12.9145 3 
1.43089 15.7981 12.9144 3 
1.43142 12.9273 15.7832 3 
1.43104 15.7991 15.7831 3 
2.86729 14.3628 14.3488 3 
4.30323 15.7985 12.9145 3 
4.30335 12.9267 12.9145 3 
7.17513 12.9266 12.9145 3 
7.17513 15.7985 12.9144 3 
5.73961 14.363 14.3487 3 
4.30429 12.9277 15.7827 3 
4.30381 15.7995 15.783 3 
7.17613 12.9272 15.783 3 
7.17594 15.7993 15.7832 3 
10.0458 12.9262 12.9145 3 
10.0459 15.798 12.9144 3 
11.4809 14.362 14.3495 3 
10.0463 12.9264 15.7841 3 
10.0463 15.7983 15.7844 3 
8.61089 14.3626 14.349 3 
12.9155 12.926 12.9144 3 
15.7851 12.9259 12.9144 3 
12.9156 15.7974 12.9144 3 
15.7854 15.797 12.9144 3 
14.3503 14.3616 14.3498 3 
12.9155 12.926 15.785 3 
15.7849 12.926 15.7848 3 
12.9157 15.7974 15.7853 3 
15.7853 15.797 15.7853 3 
18.6557 12.9258 12.9145 3 
18.6558 15.7968 12.9145 3 
17.2204 14.3615 14.3496 3 
20.0913 14.3614 14.3494 3 
18.6553 12.9261 15.7843 3 
18.6557 15.7969 15.785 3 
22.9627 14.3616 14.3491 3 
21.5271 12.9256 12.9145 3 
21.5269 15.797 12.9145 3 
24.3988 12.9257 12.9145 3 
24.3986 15.7973 12.9144 3 
21.5268 12.9259 15.7839 3 
21.5266 15.7973 15.7843 3 
24.3983 15.7978 15.7837 3 
24.3985 12.9262 15.7836 3 
28.7068 14.3624 14.3489 3 
27.2709 12.926 12.9144 3 
27.2706 15.7977 12.9144 3 
27.2708 12.9267 15.7834 3 
27.2704 15.7984 15.7834 3 
25.8346 14.3619 14.349 3 
1.43077 18.6688 12.9144 3 
2.86682 20.104 14.3494 3 
2.86701 17.2341 14.349 3 
1.43079 18.6693 15.784 3 
5.73867 20.1043 14.3495 3 
4.30291 18.6692 12.9144 3 
7.17465 18.6693 12.9144 3 
5.73922 17.2343 14.349 3 
4.30311 18.6697 15.784 3 
7.17492 18.6697 15.7843 3 
10.0455 18.6688 12.9144 3 
11.4801 20.1036 14.35 3 
10.0456 18.6691 15.785 3 
11.4808 17.2332 14.3498 3 
8.61062 17.234 14.3492 3 
8.60983 20.1042 14.3497 3 
12.9153 18.668 12.9144 3 
15.7852 18.6674 12.9145 3 
12.9154 18.6681 15.7857 3 
15.7853 18.6674 15.7857 3 
14.3504 17.2325 14.35 3 
14.3499 20.1027 14.3501 3 
18.6557 18.6673 12.9145 3 
17.2201 20.1022 14.35 3 
17.2205 17.2321 14.3499 3 
20.0911 20.1023 14.3498 3 
20.0912 17.2322 14.3496 3 
18.6557 18.6673 15.7854 3 
21.5268 18.6675 12.9144 3 
24.3985 18.6679 12.9144 3 
22.9625 17.2326 14.3493 3 
21.5267 18.6676 15.7848 3 
24.3984 18.6681 15.7844 3 
22.9626 20.1026 14.3496 3 
28.7067 17.2336 14.349 3 
25.8345 20.103 14.3494 3 
25.8345 17.2331 14.3491 3 
27.2706 18.6683 12.9144 3 
28.7067 20.1035 14.3494 3 
27.2705 18.6687 15.7842 3 
1.4308 21.5384 12.9143 3 
1.43086 24.4081 12.9143 3 
1.4308 21.5385 15.7848 3 
1.431 24.4078 15.7844 3 
2.86679 22.9734 14.3495 3 
7.17357 24.4088 12.9143 3 
4.30249 24.4085 12.9143 3 
4.30266 21.5389 12.9143 3 
7.17403 21.5391 12.9143 3 
5.73828 22.9738 14.3497 3 
4.30269 21.5389 15.7849 3 
7.17403 21.5392 15.7852 3 
4.30263 24.4083 15.7848 3 
7.17359 24.4088 15.7852 3 
10.0439 24.4087 12.9143 3 
10.0446 21.5388 12.9144 3 
11.4792 22.9734 14.3501 3 
8.6091 22.9739 14.3499 3 
10.0446 21.5389 15.7856 3 
10.0439 24.4088 15.7856 3 
12.9138 24.4081 12.9144 3 
15.7837 24.4072 12.9144 3 
15.7846 21.5373 12.9145 3 
12.9146 21.538 12.9145 3 
12.9145 21.5381 15.7858 3 
15.7846 21.5373 15.7856 3 
15.7836 24.4071 15.7849 3 
12.9138 24.4081 15.7855 3 
14.349 22.9725 14.35 3 
18.6553 21.537 12.9144 3 
18.6547 24.4068 12.9144 3 
18.6553 21.537 15.7852 3 
18.6544 24.4064 15.7842 3 
20.0907 22.9718 14.3495 3 
17.2194 22.9719 14.3497 3 
24.3987 24.4072 12.9144 3 
21.5265 24.4069 12.9144 3 
24.3986 21.5375 12.9144 3 
21.5267 21.5371 12.9144 3 
22.9626 22.972 14.3493 3 
21.5267 21.5371 15.7849 3 
24.3986 21.5375 15.7847 3 
21.5263 24.4064 15.7839 3 
24.3987 24.4068 15.7839 3 
28.7069 22.9729 14.3494 3 
27.2709 24.4076 12.9143 3 
27.2707 21.5379 12.9144 3 
25.8347 22.9724 14.3493 3 
27.2707 21.538 15.7847 3 
27.2709 24.4072 15.7841 3 
1.43075 27.2787 12.9143 3 
1.43112 27.2781 15.7837 3 
2.86675 25.8433 14.3492 3 
5.73802 25.8438 14.3495 3 
4.30228 27.2791 12.9143 3 
7.17328 27.2793 12.9143 3 
4.30261 27.2787 15.7842 3 
7.17339 27.2792 15.7848 3 
10.0437 27.2792 12.9143 3 
11.4787 25.8437 14.3498 3 
10.0438 27.2792 15.7852 3 
8.60865 25.844 14.3497 3 
14.3484 25.8429 14.3496 3 
12.9135 27.2788 12.9143 3 
15.7833 27.2782 12.9143 3 
12.9135 27.2788 15.7851 3 
15.783 27.2779 15.7841 3 
20.0902 25.8418 14.3488 3 
18.6542 27.2776 12.9144 3 
17.2186 25.8421 14.3491 3 
18.6534 27.2768 15.783 3 
21.5262 27.2776 12.9144 3 
24.3986 27.278 12.9144 3 
22.9625 25.842 14.3488 3 
21.5256 27.2766 15.7827 3 
24.3984 27.277 15.7829 3 
25.8348 25.8424 14.3489 3 
27.2708 27.2784 12.9144 3 
28.707 25.8429 14.3491 3 
27.271 27.2776 15.7833 3 
1.43243 1.43593 18.6517 3 