ITEM: TIMESTEP
57041
ITEM: NUMBER OF ATOMS
18
ITEM: BOX BOUNDS pp pp pp
0.0000000000000000e+00 2.8712000000000000e+01
0.0000000000000000e+00 2.8712000000000000e+01
0.0000000000000000e+00 2.8712000000000000e+01
ITEM: ATOMS x y z c_cna 
25.6846 5.59597 0.396044 5 
27.2706 7.18214 1.39247 5 
0.144652 8.76818 0.395913 5 
27.2707 7.18208 24.4363 5 
1.53303 7.18678 27.2704 5 
24.4504 4.3617 27.2704 5 
24.2963 7.17736 27.2704 5 
28.6694 5.78338 28.6928 5 
28.6695 5.78334 25.8481 5 
27.2661 4.20773 27.2705 5 
25.6847 5.59597 25.4328 5 
28.0196 7.93118 27.2704 5 
26.5217 6.43312 27.2705 5 
1.37902 10.0025 27.2704 5 
0.144819 8.76817 25.4327 5 
25.8718 8.58083 28.6927 5 
25.8719 8.58081 25.848 5 
27.2752 10.1565 27.2703 5 
ITEM: TIMESTEP
57042
ITEM: NUMBER OF ATOMS
18
ITEM: BOX BOUNDS pp pp pp
0.0000000000000000e+00 2.8712000000000000e+01
0.0000000000000000e+00 2.8712000000000000e+01
0.0000000000000000e+00 2.8712000000000000e+01
ITEM: ATOMS x y z c_cna 
25.6846 5.59597 0.396044 5 
27.2706 7.18214 1.39247 5 
0.144652 8.76818 0.395913 5 
27.2707 7.18208 24.4363 5 
1.53303 7.18678 27.2704 5 
24.4504 4.3617 27.2704 5 
24.2963 7.17736 27.2704 5 
28.6694 5.78338 28.6928 5 
28.6695 5.78334 25.8481 5 
27.2661 4.20773 27.2705 5 
25.6847 5.59597 25.4328 5 
28.0196 7.93118 27.2704 5 
26.5217 6.43312 27.2705 5 
1.37902 10.0025 27.2704 5 
0.144819 8.76817 25.4327 5 
25.8718 8.58083 28.6927 5 
25.8719 8.58081 25.848 5 
27.2752 10.1565 27.2703 5 
