ITEM: TIMESTEP
57000
ITEM: NUMBER OF ATOMS
2001
ITEM: BOX BOUNDS pp pp pp
0.0000000000000000e+00 2.8712000000000000e+01
0.0000000000000000e+00 2.8712000000000000e+01
0.0000000000000000e+00 2.8712000000000000e+01
ITEM: ATOMS x y z 
1.58395 1.60963 1.30893 
3.02409 2.82525 2.91784 
0.0933747 2.91105 2.94784 
0.0737627 2.81639 0.00946902 
4.36603 1.3125 1.40009 
7.24156 1.33498 1.45797 
5.49561 2.76766 2.84799 
5.65418 0.0591221 2.92978 
9.93898 1.45695 1.47816 
8.69274 2.96401 2.84695 
11.5967 2.93722 3.08472 
8.56236 2.95468 0.0965423 
11.4825 0.180612 3.20023 
11.5994 0.156716 0.0227184 
12.7925 1.52944 1.7393 
15.7776 1.28994 1.54925 
14.5867 2.93876 2.91509 
14.376 0.0297525 2.85634 
14.4267 2.80871 0.038799 
18.751 1.46232 1.43079 
17.2584 2.78692 2.93388 
20.2123 2.87072 2.96564 
20.2257 0.0938515 2.90543 
20.1357 2.96329 0.0511189 
17.1675 2.75897 0.258613 
21.525 1.38927 1.37507 
22.9273 2.74581 2.94215 
24.3994 1.45959 1.41194 
23.1317 0.0403549 0.121934 
27.3141 1.41229 1.39055 
25.7811 2.91363 2.99922 
25.7757 0.0753805 0.198412 
1.53025 4.22619 1.31151 
1.22873 7.0277 1.51934 
2.92557 5.83293 2.85685 
4.30085 4.2579 1.35152 
7.13307 4.28968 1.55883 
4.13614 7.2858 1.29086 
7.06764 7.181 1.61722 
5.73824 5.61201 2.83109 
5.84546 5.93611 0.209022 
10.0734 4.25376 1.53147 
10.0499 7.17435 1.29058 
8.54026 5.73614 2.76025 
11.3379 5.80849 2.94451 
15.7023 4.35587 1.42327 
12.9912 4.30895 1.59528 
12.8984 7.09514 1.48536 
15.9385 7.18328 1.4808 
14.4237 5.89595 2.98012 
14.4083 5.86211 0.0999318 
18.459 4.35219 1.52125 
18.709 7.22712 1.42813 
17.3054 5.76339 2.908 
20.1417 5.59931 2.91185 
19.9045 5.73724 0.0746857 
24.2945 4.14073 1.59353 
21.4919 4.33638 1.33097 
21.5805 7.13605 1.38941 
21.4316 7.1907 4.04731 
23.1035 5.7352 2.94595 
24.3045 7.0216 1.5454 
22.9573 5.8152 0.00188995 
27.2312 4.17934 1.53085 
28.5701 5.66353 2.93086 
25.6397 5.56812 0.391835 
27.0721 6.95952 1.61923 
25.6257 5.65642 2.90521 
28.5359 5.68801 0.150848 
1.31367 10.12 1.49172 
2.79157 8.5186 2.86035 
2.75908 11.4604 2.76925 
2.9803 11.6567 0.0513235 
2.71808 8.62087 0.0925869 
4.30926 10.215 1.47263 
7.25989 10.1943 1.57558 
5.56663 8.61788 2.8311 
5.84319 11.2833 3.03617 
5.97627 8.80283 0.195956 
10.061 10.0733 1.47435 
8.79253 8.43635 2.84998 
11.5361 8.69363 3.04704 
8.81968 11.7918 2.98675 
11.6367 11.4829 2.9083 
8.75412 11.5758 0.165164 
8.43209 8.52931 0.117141 
11.492 11.6502 0.272157 
11.5152 8.74885 0.0252062 
13.0827 10.0975 1.40413 
15.8458 9.94882 1.59039 
14.2855 8.60863 2.84075 
14.4626 11.5041 2.8958 
14.3903 8.81961 0.00204097 
18.7216 10.1759 1.54377 
17.2146 8.53377 3.04452 
20.0867 8.66728 2.81049 
17.1944 11.5878 2.98321 
20.0313 11.4895 2.94708 
17.3439 8.69146 0.174086 
17.2391 11.4862 0.0530412 
21.6058 10.0326 1.23908 
23.0106 8.61843 2.89496 
22.9773 11.6158 2.76562 
24.4031 10.1788 4.08096 
24.2351 10.1857 1.27628 
28.6249 11.6119 2.89765 
28.5042 8.59723 0.251401 
28.4928 8.73464 2.79719 
27.1219 10.1262 1.36849 
25.6487 8.566 2.71602 
25.8313 11.506 2.83145 
25.6202 8.48707 0.127408 
1.34348 12.92 1.21982 
1.5728 15.8234 1.34635 
2.93084 14.2632 2.81486 
5.76541 14.3984 0.0517404 
4.22487 15.8226 1.56336 
4.30819 12.8957 1.49877 
7.25106 12.7891 1.60511 
7.31681 15.7573 1.42165 
5.76184 14.3137 2.9531 
10.13 13.0799 1.51571 
10.2948 15.9624 1.38741 
8.64467 14.6768 2.89286 
11.9286 14.2975 2.97422 
8.75784 14.2183 0.122005 
13.0663 13.0841 1.36323 
15.977 13.0005 1.54577 
13.1196 15.916 1.21942 
15.8387 15.9126 1.53963 
14.4162 14.4216 3.04306 
18.6861 12.8747 1.44748 
18.7152 15.7554 1.39351 
17.3496 14.3477 2.96286 
20.094 14.3639 2.75297 
17.1143 14.3672 0.0519395 
21.4835 13.1486 1.47552 
21.4052 15.6987 1.47921 
22.9439 14.3924 2.98979 
24.3586 12.9284 1.32458 
24.2492 16.0654 1.46462 
28.6494 14.2629 2.79394 
27.1002 12.997 1.03237 
27.2585 15.8398 1.14909 
25.8961 14.3525 2.87382 
1.4676 18.7189 1.54291 
2.77335 17.2063 2.87174 
2.73045 20.1524 3.02249 
5.64521 20.1791 0.173416 
4.32148 18.3978 1.42038 
7.13956 18.5718 1.55308 
5.7408 17.2477 2.89635 
5.79286 20.2183 2.98244 
5.89711 16.9737 0.118412 
8.53303 17.0436 0.0398452 
9.94996 18.7421 1.46892 
8.52835 17.2021 2.83842 
11.5508 17.3182 3.01168 
8.56233 20.1924 2.98242 
11.4624 20.2212 2.79965 
11.3632 20.1812 0.138784 
8.48441 20.3376 0.026358 
12.7998 18.7517 1.35294 
15.7773 18.5288 1.51809 
14.469 17.3126 3.07642 
14.486 20.2688 2.74622 
14.3736 20.0943 0.0721497 
18.5263 18.7653 1.55492 
17.3965 17.2569 2.81369 
20.0126 17.245 2.92528 
17.1761 20.3801 2.96821 
20.0902 20.051 2.92946 
17.187 20.0444 0.00218758 
17.2606 17.3302 0.161388 
21.4218 18.6977 1.39277 
24.5788 18.8128 1.57211 
22.9095 17.1801 2.99755 
23.1036 20.0338 2.69384 
22.9151 20.0532 0.0304789 
28.6036 20.1805 2.92293 
28.6447 17.1351 2.84535 
27.0854 18.7935 1.60656 
25.8183 16.9737 2.98086 
25.8864 20.1834 3.0571 
28.6435 17.3229 0.113449 
28.6041 20.0217 0.0223153 
25.771 17.3373 0.0217216 
25.9189 20.1324 0.039854 
1.3746 21.5324 1.42083 
2.60206 22.8782 2.87666 
1.43935 24.3313 1.47559 
0.00961732 23.1902 2.80826 
2.76243 22.8714 0.0190277 
5.66587 22.9416 0.0537729 
4.34955 24.3112 1.41135 
4.30263 21.7102 1.54043 
7.10103 21.6903 1.57525 
5.75096 23.2616 3.07535 
7.27749 24.596 1.61628 
10.1492 21.7145 1.49761 
8.56233 23.014 2.87945 
11.4443 23.1838 2.82566 
10.1857 24.5086 1.5222 
11.4172 23.0626 0.20776 
12.8854 21.6496 1.35166 
15.8527 21.6245 1.26831 
12.9151 21.5523 4.09404 
14.3075 23.1107 2.73153 
15.8856 24.4854 1.38685 
12.8085 24.5572 1.42893 
18.5889 21.4699 1.4185 
17.2961 23.1041 2.92018 
20.0035 22.8589 2.73708 
18.7158 24.3986 1.45722 
17.2658 23.2539 0.00633746 
20.1365 22.987 0.0322708 
21.3887 21.5649 1.26025 
24.556 21.3952 1.46378 
23.0136 22.8037 2.96468 
24.3836 24.5144 1.4731 
21.5189 24.2832 1.42986 
25.9727 22.8096 0.0357908 
27.2204 21.6364 1.44865 
25.8463 22.8145 3.13141 
27.0846 24.606 1.4405 
2.89153 28.65 2.8879 
0.0814926 28.5204 2.72696 
1.55589 27.2534 1.33288 
2.81743 25.7415 2.95492 
0.0979083 25.909 2.86272 
5.7914 25.9202 0.123204 
4.28033 27.311 1.42751 
7.24974 27.2778 1.54787 
5.84088 25.8324 3.04236 
8.6702 28.6324 2.90303 
10.1603 27.5425 1.23752 
8.78384 26.0522 2.80359 
11.5315 26.0168 3.05115 
12.8431 27.3555 1.55158 
15.7868 27.1999 1.48424 
14.5302 25.7938 2.89094 
17.2586 28.6376 2.81573 
17.3467 25.7283 0.0702659 
18.6375 27.1781 1.48471 
17.3254 25.9128 2.8762 
20.1887 25.7838 2.8288 
22.9787 28.7006 2.76456 
21.5675 27.2464 1.44675 
22.9666 25.7682 2.80782 
24.4967 27.0438 1.37905 
23.1385 25.745 0.0538218 
25.7719 28.5401 2.9466 
27.3231 27.2876 1.37855 
25.9628 25.9391 2.80085 
1.35519 1.33322 4.12944 
1.4587 1.39166 7.16252 
2.9126 2.76597 5.70795 
0.135575 2.9685 5.70032 
0.0321259 0.0205361 5.77122 
2.77763 0.137366 5.82446 
4.25867 1.3471 4.36376 
7.2008 1.4774 4.2982 
4.18067 1.37446 7.3254 
6.98733 1.36277 7.18404 
5.62346 2.78974 5.77834 
6.98052 4.05112 7.11588 
9.95679 1.489 4.50156 
9.91562 1.41216 7.22556 
8.56359 2.8617 5.66381 
11.4697 2.81895 5.75339 
13.0888 1.3976 4.49596 
15.7589 1.4984 4.44736 
12.8988 1.44118 7.23707 
15.7314 1.41272 7.28214 
14.3789 2.91535 6.00689 
14.4486 0.0338657 5.79441 
18.6165 1.31726 4.30554 
18.782 1.3537 7.14839 
17.1949 2.76126 5.81486 
19.9593 2.89394 5.74982 
17.3239 0.0304265 5.73027 
21.5618 1.51281 4.23392 
24.3387 1.27916 4.34232 
21.5601 1.3772 7.16089 
24.3317 1.5694 7.08815 
22.9357 2.81129 5.6144 
27.3102 1.36136 4.32059 
27.3702 1.488 7.11352 
25.8274 2.9458 5.77342 
1.5701 4.23546 4.39334 
1.50052 7.11707 4.1723 
1.56278 4.24613 7.07778 
1.33768 7.213 7.03189 
2.92021 5.84514 5.71593 
0.0573581 5.76398 5.59686 
4.46935 7.0726 4.23247 
7.0852 4.20301 4.33234 
4.41339 4.34659 4.42286 
7.28447 7.21849 4.4001 
4.26184 7.2176 7.00032 
4.10803 4.41193 7.26878 
5.84033 5.74345 5.89416 
7.08527 7.33514 7.05811 
10.0273 4.46986 4.35679 
10.0905 7.13058 4.27158 
9.97775 4.40922 7.04882 
8.49022 5.63945 5.78544 
9.93303 7.24464 7.28859 
11.5539 5.64033 5.73154 
13.0367 4.22924 4.40742 
16.0807 4.26817 4.41075 
12.9448 7.17942 4.29233 
15.8451 7.22233 4.44422 
13.0115 4.35254 7.28127 
15.581 4.38833 7.30147 
12.8478 7.125 7.21056 
14.3111 5.87198 5.83109 
15.9409 7.09296 7.22289 
18.8256 4.38079 4.55714 
18.6237 7.07516 4.36279 
18.6433 4.40402 7.15974 
17.3419 5.79211 5.76679 
18.6085 7.2866 7.18204 
20.1625 5.81757 5.9383 
24.3982 4.37724 4.56611 
21.5405 4.51046 4.37267 
24.4767 7.11476 4.31453 
21.4947 4.32142 7.06213 
24.2987 4.2831 7.20822 
21.6767 7.40147 7.28511 
22.9237 5.75267 5.86257 
24.3927 7.19066 7.36103 
27.2376 4.2847 4.39681 
27.2599 7.31444 4.22023 
27.4298 4.45226 6.88496 
25.8385 5.78748 5.58728 
27.4026 7.18332 7.00879 
1.38096 10.1562 4.31945 
1.29639 10.0333 7.10866 
2.84228 8.70799 5.51418 
2.95248 11.5887 5.62064 
0.0754621 8.66049 5.57797 
4.19498 9.89936 4.27389 
7.32258 9.9854 4.27409 
4.23285 10.0694 7.17933 
5.8646 8.73236 5.65641 
7.18575 10.107 7.089 
5.72032 11.318 5.61477 
10.1847 10.1782 4.4135 
8.65403 8.62514 5.64206 
10.0347 10.073 7.22463 
11.4134 8.6168 5.68735 
8.60145 11.5571 5.83001 
11.4054 11.4766 5.83974 
13.2146 9.87786 4.57914 
15.8777 10.0311 4.41237 
12.7677 10.0718 7.09646 
14.463 8.52613 5.99303 
15.6997 9.96293 7.30555 
14.335 11.6001 5.83657 
18.8043 10.1586 4.45129 
17.3576 8.74984 5.62677 
18.7327 9.97144 7.15304 
20.2218 8.5445 5.59457 
17.1926 11.448 5.95697 
20.1275 11.3817 6.01891 
21.5633 10.1658 4.2341 
21.5691 10.0475 7.24028 
23.1591 8.39449 5.71274 
22.9397 11.5608 5.66781 
24.3052 10.0792 6.95677 
27.2647 10.1536 4.33309 
28.699 11.662 5.82358 
25.8394 8.58308 5.72055 
27.2862 10.0463 7.14086 
25.8037 11.4664 5.70684 
1.49608 13.0038 4.34323 
1.59013 15.8374 4.32852 
1.47909 12.8187 7.32853 
1.47058 15.5245 7.27653 
2.97274 14.5133 5.75604 
0.0135824 14.422 5.8478 
4.30562 12.8617 4.2132 
4.47845 15.8229 4.30272 
7.2784 13.0266 4.49318 
7.11274 15.7727 4.16552 
4.2306 13.0829 7.28721 
4.3936 15.951 7.20286 
7.0099 13.0921 7.14492 
5.64538 14.4373 5.89389 
7.21606 15.8403 7.23339 
10.1905 13.0712 4.32312 
10.2322 15.9065 4.15613 
10.1396 13.1405 7.07793 
8.79084 14.3788 5.57745 
9.89288 15.8729 7.16053 
11.5782 14.6625 5.67478 
13.0054 12.8349 4.48418 
15.728 13.0023 4.4362 
12.9582 15.9919 4.29911 
15.9111 15.887 4.31346 
12.9095 13.0011 7.16575 
15.7584 12.9116 7.25011 
13.0617 15.9539 7.3041 
14.4395 14.6904 5.78639 
15.8487 15.6883 7.37569 
18.6194 12.8354 4.36911 
18.716 15.5745 4.31136 
18.6924 13.0241 7.23069 
17.1312 14.3359 5.72012 
18.8492 15.7859 7.31082 
20.0751 14.3496 5.74399 
21.5717 12.8672 4.32584 
21.3258 15.7158 4.22443 
24.4098 12.8518 4.26244 
24.5265 15.838 4.42474 
21.4836 12.8111 7.12778 
21.3973 15.7686 7.10693 
22.9976 14.4404 5.78422 
24.4051 12.8668 7.05593 
24.5888 15.7893 7.04895 
27.1489 13.0152 4.27887 
27.3287 15.7344 4.27465 
27.3541 12.8062 7.1235 
25.8655 14.4647 5.70664 
27.3233 15.7881 7.34118 
1.53805 18.7646 4.41937 
1.26769 18.4992 7.28752 
2.93075 17.1925 5.7289 
2.96957 20.0286 5.77058 
0.02179 20.0214 5.80577 
0.00048375 17.2441 5.72502 
4.36224 18.8114 4.37083 
7.06329 18.7484 4.21771 
4.35274 18.6255 7.1105 
5.82478 17.3 5.70517 
7.28692 18.5807 7.24123 
5.74282 20.1291 5.82646 
9.97742 18.7367 4.12511 
8.6125 17.1618 5.54428 
9.96039 18.8188 7.113 
11.5229 17.3047 5.94171 
8.56947 20.1061 5.82598 
11.3983 20.0782 5.70987 
13.0535 18.8131 4.22546 
15.7549 18.6137 4.43942 
12.8085 18.7302 7.10602 
14.3416 17.2924 5.79147 
15.8686 18.6161 7.27839 
14.3116 20.1769 5.8013 
18.6791 18.7882 4.37666 
17.3504 17.1564 5.88401 
18.6621 18.7018 7.26779 
20.1174 17.21 5.6139 
17.2724 20.1665 5.776 
20.2488 19.9061 5.88018 
21.5394 18.6389 4.16587 
24.2883 18.4781 4.24977 
21.5419 18.4489 7.19406 
23.0814 17.1266 5.88528 
22.9065 19.9652 5.75711 
24.5131 18.6483 7.10886 
27.3884 18.7 4.29391 
25.9447 17.319 5.6813 
27.2254 18.5326 7.20264 
26.0445 20.0221 5.67567 
1.30959 21.4662 4.34654 
1.56055 24.3182 4.39523 
4.1 24.2945 4.35521 
1.26008 21.4211 7.28394 
2.73262 22.8322 5.9597 
1.34093 24.5549 7.24889 
0.173378 22.9763 5.88024 
4.17825 21.4985 4.31842 
7.17593 21.6005 4.18585 
7.19166 24.5261 4.28542 
4.27754 21.4605 7.40943 
7.1591 21.5686 7.25853 
5.66195 22.9136 5.60752 
7.27429 24.4076 7.23013 
4.39448 24.1935 7.28463 
10.0743 21.5895 4.2679 
10.0541 24.3715 4.28973 
10.0065 21.5223 7.1292 
8.44248 22.9381 5.7898 
11.4232 22.9991 5.72559 
9.97843 24.2917 7.15424 
15.7524 21.6413 4.32136 
12.7884 24.514 4.21383 
15.7236 24.4741 4.29617 
12.9421 21.5864 7.15794 
15.7726 21.5086 7.07238 
14.3393 22.9586 5.64647 
16.002 24.3183 7.08156 
12.9715 24.4763 7.12148 
18.7653 21.5724 4.2105 
18.6753 24.3627 4.36789 
18.7789 21.486 7.11209 
17.2825 22.9451 5.66186 
20.223 22.8014 5.70284 
18.7858 24.4845 7.18501 
21.5979 21.4308 4.25668 
24.3343 21.395 4.19599 
21.3707 24.3687 4.33451 
24.3772 24.2795 4.24294 
21.4686 21.5061 7.21934 
22.8989 23.0483 5.81506 
24.5701 24.3571 7.21952 
24.3839 21.48 7.1929 
21.5555 24.4331 7.12383 
27.3151 21.5943 4.61886 
27.3562 24.2907 4.4101 
27.1946 21.488 7.37352 
25.7188 22.767 5.9002 
27.2697 24.454 7.19081 
1.39902 27.4099 4.37867 
1.51331 27.3966 7.2573 
2.94332 25.9234 6.07815 
4.21153 27.2531 4.46779 
7.07517 27.3369 4.29642 
5.61674 28.699 5.75836 
4.41629 27.2076 7.20451 
5.65465 25.6174 5.64397 
6.98126 27.1961 7.19693 
9.92135 27.1914 4.4207 
11.5376 28.6964 5.93509 
8.46077 28.6753 5.85832 
8.46299 25.9005 5.79498 
9.66387 27.2564 7.25781 
11.3802 25.8901 5.8384 
12.9788 27.4476 4.47624 
15.7657 27.4139 4.30532 
13.0082 27.4438 7.04052 
14.554 25.7982 5.88709 
15.8684 27.2275 7.1943 
18.7373 27.2937 4.21332 
20.221 28.5972 5.58906 
17.4262 25.8149 5.65156 
18.7679 27.3079 6.99309 
20.2478 25.9181 5.55116 
21.633 27.2765 4.17949 
24.3261 27.2061 4.25858 
22.922 28.6468 5.69465 
21.6118 27.084 7.09258 
23.0077 25.7702 5.63011 
24.3428 27.2552 7.14153 
27.3105 27.2859 4.3415 
28.4777 25.9666 5.79782 
25.7457 28.5724 5.73614 
25.8978 25.7917 5.74153 
27.396 27.4586 7.30538 
2.83826 2.91575 8.74666 
0.0346184 3.16492 8.51821 
0.180801 0.0503907 8.58011 
0.172831 0.175718 11.5396 
1.37312 1.39511 9.70309 
2.82633 2.77831 11.3827 
0.106037 2.81534 11.5891 
3.00086 0.0195907 11.378 
5.69746 2.65651 8.49148 
4.40042 1.65683 10.0793 
7.14875 1.19753 10.0798 
5.44853 3.04547 11.4525 
8.5 2.66446 8.65499 
11.3998 2.9318 8.42905 
11.4935 0.127982 8.54014 
10.039 1.54545 10.0778 
8.55259 2.77444 11.3534 
11.2586 2.87078 11.6519 
11.6282 0.0412844 11.3772 
14.3288 2.79283 8.64641 
14.2749 0.0112226 8.59927 
12.8768 1.52092 9.95801 
15.8369 1.44202 10.1625 
14.2341 2.86161 11.6256 
14.334 0.0763968 11.4194 
17.2473 2.80413 8.55334 
20.226 2.83291 8.58611 
17.3067 0.0794795 11.4789 
20.1296 0.137272 11.4251 
18.7041 1.37336 9.69581 
17.2043 2.83762 11.5948 
20.1119 2.81822 11.3227 
23.0513 3.1333 8.57224 
23.0748 0.00757858 8.49554 
21.6804 1.54613 9.90045 
23.0882 2.99905 11.4711 
24.1915 1.37168 9.99986 
25.7788 3.00419 8.38653 
25.7418 0.0628369 8.36876 
26.033 0.280794 11.2547 
27.2358 1.6562 9.886 
25.9181 2.97267 11.5529 
2.84078 5.84647 8.57444 
0.0718644 5.69796 8.73776 
1.42501 4.37875 10.3189 
1.40574 7.07599 9.94272 
3.03927 5.94127 11.6179 
4.08725 7.23403 9.94906 
6.01471 5.86141 8.57561 
7.11493 4.21011 9.95923 
4.32534 4.55848 10.1392 
7.10763 7.28968 9.91154 
5.77055 5.89125 11.6405 
8.51852 5.73319 8.61732 
11.3742 5.8423 8.5632 
10.0348 4.34705 9.85346 
9.85995 7.33442 9.9653 
8.55256 5.68106 11.398 
11.1028 5.72287 11.4909 
14.246 5.76669 8.72044 
12.7543 4.12976 9.97981 
15.7394 4.24474 10.1208 
12.8141 7.1292 10.1663 
15.7067 7.13882 10.2402 
14.0935 5.74078 11.4315 
17.1446 5.80917 8.63203 
20.1147 5.70479 8.48624 
18.7128 4.28794 9.90762 
18.6552 7.25346 9.9248 
17.3152 5.66209 11.476 
19.9831 5.914 11.4131 
22.9625 5.71027 8.59662 
21.5212 4.4305 10.0121 
21.5386 7.03061 9.92865 
22.8847 5.94895 11.5304 
24.2587 7.27721 10.0915 
24.478 4.42465 10.0207 
25.8712 5.66937 8.457 
28.6555 5.53 11.4959 
27.2767 4.54151 9.98889 
27.1588 7.1262 9.92245 
25.8304 5.96533 11.423 
2.88582 8.56566 8.34671 
2.70807 11.2788 8.60064 
0.0234439 11.4191 8.68209 
1.39263 9.89804 9.93847 
2.81759 8.61424 11.4409 
2.8354 11.2755 11.4561 
0.109822 11.3163 11.6197 
5.7001 8.70608 8.63796 
5.5128 11.6464 8.41962 
4.18992 10.0794 9.85966 
7.16154 10.312 9.93383 
5.8343 8.77054 11.3429 
5.65308 11.5511 11.4693 
8.51941 8.68162 8.57644 
11.4413 8.72565 8.675 
8.56181 11.7854 8.48392 
11.4717 11.4682 8.61586 
11.5586 8.72817 11.5289 
9.94964 10.259 9.78516 
8.62639 8.81434 11.2505 
8.73868 11.5551 11.5222 
11.3431 11.5201 11.4679 
14.3531 8.6315 8.72084 
14.2212 11.4882 8.75454 
12.8737 10.2487 10.1009 
15.5344 10.1261 10.0639 
14.1855 8.7005 11.5938 
14.2714 11.3416 11.6234 
17.0535 8.65821 8.75606 
20.1945 8.53701 8.59208 
17.1899 11.4256 8.43297 
20.0024 11.4538 8.66208 
18.4818 10.0747 10.044 
17.0611 8.49728 11.6321 
20.1008 8.63182 11.2994 
17.1221 11.5004 11.7145 
19.9881 11.3209 11.4283 
22.9865 8.78088 8.85442 
23.131 11.3985 8.66492 
21.4973 10.1051 10.177 
23.0043 8.75768 11.4856 
23.0251 11.4651 11.5175 
24.5634 10.0623 10.0527 
28.5191 8.65714 8.66616 
25.9454 8.58927 8.38555 
25.8692 11.4231 8.3896 
28.6373 8.55696 11.3831 
27.1989 10.0556 10.0666 
25.6748 8.43747 11.4989 
25.9017 11.2805 11.6036 
2.67798 14.3174 8.77809 
1.38778 12.9366 10.1946 
1.22116 15.8279 10.104 
2.63038 14.4603 11.5563 
5.47034 14.4017 8.7631 
4.10759 12.7165 9.98249 
4.13926 15.7381 10.1445 
7.10161 12.9123 10.1238 
7.05046 15.6055 9.90475 
5.67192 14.2577 11.5143 
8.41756 14.2554 8.57032 
11.5037 14.4144 8.56409 
10.0864 13.0052 9.84131 
10.157 15.8554 9.93658 
8.67852 14.3601 11.442 
11.6077 14.3861 11.4421 
14.2466 14.2306 8.60186 
12.825 13.0648 10.0386 
15.7128 12.7583 10.2116 
12.9464 15.9617 9.87021 
15.6953 15.6634 10.135 
14.3357 14.356 11.4459 
17.2608 14.1921 8.75038 
20.1823 14.3076 8.55563 
18.6233 12.8258 10.0513 
18.8471 15.7714 9.90846 
17.2463 14.268 11.4028 
20.0147 14.2992 11.4059 
23.0453 14.2972 8.54711 
21.6455 12.8017 10.054 
21.526 15.7761 10.1949 
22.9809 14.4194 11.3446 
24.1764 15.7602 10.1142 
24.5171 12.9235 9.93348 
28.5662 14.2409 8.77478 
25.7243 14.3331 8.54187 
28.5505 14.1533 11.3939 
27.1306 12.7346 9.93523 
27.1457 15.6831 10.0564 
25.8635 14.146 11.6308 
2.80079 17.1787 8.53675 
2.95412 19.9471 8.64593 
0.0365766 19.9315 8.72726 
1.45467 18.6944 10.035 
2.71903 17.3518 11.4558 
2.68534 20.1921 11.4861 
5.54819 17.2675 8.84921 
5.62042 20.0448 8.7086 
4.28165 18.8159 10.2497 
7.19639 18.762 10.132 
5.66747 17.1733 11.4344 
5.63934 19.9222 11.6268 
8.59828 17.285 8.63039 
11.3192 17.4742 8.73116 
8.5554 20.2092 8.71206 
11.377 20.0863 8.59181 
9.95319 18.6007 10.1067 
8.45447 17.2173 11.3775 
11.4048 17.296 11.4848 
8.49525 20.0584 11.5553 
11.377 20.0081 11.5973 
14.3839 17.4927 8.69466 
14.2736 20.1538 8.4755 
12.9531 18.7505 10.1524 
15.8553 18.6159 10.0115 
14.4063 17.2446 11.4601 
14.3667 19.9985 11.4049 
17.317 17.1822 8.58751 
20.3182 17.1622 8.87561 
17.24 20.2548 8.64983 
20.1642 19.9221 8.53051 
18.6736 18.8321 10.004 
17.1305 17.2279 11.3931 
19.9121 17.2726 11.5735 
17.2483 20.1114 11.376 
20.0463 20.2096 11.6389 
22.907 17.3076 8.64384 
22.9464 20.1853 8.55682 
21.5604 18.7621 10.1306 
22.8589 17.3093 11.6511 
22.7338 20.2536 11.627 
24.2057 18.7951 10.1412 
28.5178 17.1724 8.7102 
25.5737 17.0501 8.66967 
25.7467 20.1128 8.63471 
28.6586 20.09 11.4622 
28.5456 17.1748 11.4576 
27.1947 18.5969 10.1021 
25.5694 17.2085 11.4568 
25.8546 20.0673 11.5231 
2.95321 23.0454 8.71226 
0.142852 22.8564 8.57676 
1.48 24.3017 10.1588 
1.49549 21.614 9.9777 
2.86149 22.8851 11.5918 
5.77046 22.858 8.56426 
7.10069 24.3058 10.103 
4.27556 21.5061 10.2448 
4.30391 24.2517 10.2212 
7.02776 21.4376 10.2025 
5.86574 22.8547 11.6358 
8.57252 23.0104 8.57449 
11.4812 22.9747 8.60655 
10.1159 24.4538 10.0993 
9.93876 21.4873 10.0103 
8.5587 22.8975 11.4753 
11.3769 22.8468 11.4288 
14.2941 22.9886 8.58414 
15.832 24.406 9.95694 
13.0345 24.4467 10.0017 
14.325 23.0608 11.3686 
12.9052 21.4307 9.98335 
15.7322 21.3653 9.88669 
17.2233 22.7831 8.56713 
20.1513 22.9119 8.51567 
20.0537 23.0298 11.55 
17.2506 22.6851 11.4088 
18.7093 24.2452 9.96797 
18.8523 21.5413 10.1208 
22.9984 22.8549 8.6688 
21.5086 21.596 10.1322 
21.3925 24.5613 9.96405 
24.4936 24.3599 9.86359 
22.9441 23.1053 11.3533 
24.2254 21.6485 10.1825 
25.6603 22.678 8.70482 
28.7037 22.9388 11.3146 
27.163 21.347 10.2666 
25.8838 22.9934 11.551 
27.2741 24.3473 9.95362 
2.9166 28.5817 8.79491 
2.84347 25.737 8.77214 
0.00371768 25.8272 8.49095 
0.00700784 25.8043 11.4354 
2.93236 25.8068 11.4002 
1.21721 27.2546 9.99703 
5.70843 28.6478 8.68947 
5.65912 25.7139 8.66427 
5.63512 28.5484 11.4658 
4.32647 27.3299 10.035 
5.74102 25.8064 11.4279 
7.14 27.2335 9.94614 
8.60033 28.574 8.86477 
8.72042 25.8137 8.82884 
11.5561 25.9439 8.50512 
8.67776 28.5898 11.4837 
11.5581 25.757 11.4952 
8.66921 25.7433 11.6239 
10.2622 27.3674 10.0307 
14.3171 25.7744 8.60994 
14.389 25.9373 11.6295 
15.8054 27.3946 9.89398 
13.0125 27.2468 9.99891 
17.2384 28.5626 8.60953 
20.2115 28.5396 8.41136 
17.3014 25.8447 8.53248 
20.0868 25.949 8.5882 
17.1456 25.941 11.3556 
18.6424 27.1798 9.91846 
19.9257 25.9366 11.4462 
22.9824 25.7643 8.51693 
21.675 27.1875 9.90602 
23.026 25.752 11.408 
22.9673 28.712 11.3373 
25.8707 25.7924 8.5503 
27.3385 27.476 9.89983 
26.0492 25.8221 11.5259 
24.6155 27.2335 10.0074 
1.52294 1.60936 12.861 
2.78499 2.84388 14.3475 
1.33603 1.3859 15.5716 
4.14578 1.52719 12.7759 
7.11889 1.48243 12.823 
5.68361 2.78483 14.3414 
4.36085 1.27315 15.6655 
7.138 1.30443 15.6242 
9.85416 1.32811 12.9531 
11.4758 2.73324 14.3329 
8.48293 3.08919 14.337 
9.9841 1.44179 15.642 
12.8794 1.40902 12.9165 
15.8488 1.27728 12.9966 
14.3774 0.0503741 14.325 
12.7488 1.52923 15.7505 
15.8212 1.46611 15.6109 
14.3926 2.84389 14.412 
18.7505 1.3469 12.9416 
20.2448 2.83819 14.1953 
20.2111 0.182942 14.237 
17.1477 2.94255 14.2646 
18.7938 1.74744 15.6997 
17.4343 0.168345 14.4315 
22.9404 0.0287908 14.053 
21.6429 1.46719 12.663 
22.9047 2.95893 14.0441 
21.6023 1.35647 15.7284 
24.3096 1.56344 15.8753 
24.6458 1.48941 13.0058 
27.2633 1.40462 13.0731 
28.6977 2.85924 14.1493 
27.2363 1.30003 15.6121 
25.8507 3.02318 14.3594 
25.8078 0.0741402 14.358 
1.45086 4.43971 12.9237 
1.26218 7.45024 12.8967 
2.88468 5.82308 14.2679 
1.44401 4.1637 15.7714 
1.53541 6.91523 15.7152 
4.30268 4.40064 13.1008 
4.40334 7.36812 12.9112 
7.2215 4.37609 12.8302 
7.24992 7.26965 12.7433 
5.87032 5.81606 14.3382 
4.24931 4.32751 15.7378 
4.29224 7.30447 15.9211 
7.0507 4.27263 15.744 
7.08482 7.22462 15.7096 
10.0487 4.31923 13.0278 
9.80913 7.29582 12.6838 
9.96973 4.37094 15.7238 
10.0293 7.25718 15.8795 
11.3903 5.90708 14.395 
8.70821 5.96943 14.3796 
12.7874 4.45826 12.889 
15.7196 4.24147 12.891 
12.8294 7.11931 13.0628 
15.6972 7.08564 13.0394 
12.7809 4.17895 15.6562 
15.5221 4.3208 15.6549 
12.8623 7.27515 15.788 
15.8503 7.18504 15.6884 
14.3032 5.84041 14.3721 
18.8324 4.32846 12.961 
18.6526 7.08844 12.9239 
17.3183 5.72591 14.3223 
18.5911 4.3526 15.7551 
18.8074 7.19336 15.8303 
20.1688 5.68189 14.4242 
24.4398 4.39404 13.0506 
21.5853 4.44973 12.8021 
21.4773 7.38524 13.0524 
24.3709 7.28579 13.137 
21.487 4.33027 15.5933 
24.3439 4.31765 15.6655 
21.6328 7.3798 15.688 
24.3369 7.36437 15.9482 
22.8646 5.88552 14.4613 
28.5866 5.89119 14.306 
27.3522 4.35906 13.0172 
27.2517 7.26172 12.8868 
27.4523 4.14001 15.7783 
27.1972 7.20381 15.7482 
25.8957 5.76035 14.3618 
1.53398 10.0398 12.8994 
2.83533 11.3978 14.22 
1.49417 10.0614 15.7839 
2.9274 8.70732 14.4621 
0.0238107 8.68122 14.4304 
4.3441 10.1752 12.8826 
7.25852 10.1823 12.8534 
5.61193 11.5502 14.2841 
5.92705 8.62924 14.3312 
4.26626 10.1211 15.5079 
7.24418 10.108 15.7318 
8.62802 11.3544 14.274 
9.92556 9.87261 12.7169 
11.45 8.64912 14.3023 
11.5268 11.4832 14.328 
9.96959 10.0793 15.5871 
8.4563 8.53181 14.4349 
12.7904 10.138 13.0693 
15.7736 10.1503 13.0108 
14.3046 8.70017 14.2491 
12.7948 9.89957 15.7521 
15.9116 9.90338 15.799 
14.286 11.4434 14.5336 
18.7921 9.82599 12.9026 
20.0629 8.77341 14.3181 
17.1862 11.3878 14.3469 
18.5738 9.96703 15.8655 
20.1035 11.5687 14.3717 
17.0898 8.51132 14.3817 
23.0277 11.5554 14.2679 
21.5086 10.0688 13.0021 
24.4749 10.0505 13.0943 
21.6319 10.1554 15.6693 
24.3782 10.0869 15.875 
23.0465 8.67918 14.3965 
27.1947 9.92665 12.8327 
25.9134 8.72974 14.2776 
27.2809 10.1007 15.8198 
28.6426 11.3569 14.4913 
25.9348 11.569 14.4402 
1.40159 12.8549 12.9672 
1.28832 15.6741 12.8904 
1.50485 12.8796 15.7239 
1.16032 15.9303 15.8449 
2.86521 14.5183 14.4415 
4.0873 15.7391 15.7697 
4.22142 15.7387 12.8307 
4.1868 13.006 12.9651 
7.2078 12.9111 12.9184 
7.03149 15.7333 12.8835 
5.65002 14.2224 14.3417 
4.10743 12.8448 15.7245 
7.0301 12.8885 15.6591 
6.9623 15.7351 15.7756 
10.0356 12.8736 12.9406 
10.0816 15.6337 12.6843 
11.4919 14.3352 14.3929 
10.0359 12.9008 15.7966 
10.041 15.7335 15.7992 
8.62806 14.4396 14.5306 
12.8339 12.7489 13.0225 
15.7519 12.8371 13.0565 
12.8955 15.8714 12.8119 
15.7391 15.7823 12.999 
12.7288 12.8571 16.0656 
15.6606 12.8404 15.9317 
12.9071 15.7357 15.7547 
15.838 15.6949 15.8275 
14.2144 14.3329 14.5021 
18.7361 12.923 12.8844 
18.6366 15.8822 13.0991 
17.247 14.462 14.3422 
18.6527 13.001 15.9369 
18.5476 15.6176 16.0251 
20.037 14.4297 14.6691 
22.986 14.1819 14.3314 
21.5231 13.0806 12.9528 
21.5448 15.8626 13.0683 
24.3907 12.8787 12.9111 
24.5053 15.8197 12.9773 
21.5085 12.9519 15.9128 
21.5446 15.7214 15.7416 
24.4083 15.6497 15.5809 
27.2986 12.8737 12.9489 
27.2778 15.7963 12.8189 
24.6332 12.8685 15.8473 
27.4411 12.842 15.9577 
27.1419 15.9007 15.6406 
25.8082 14.2568 14.3746 
28.5582 14.3467 14.4745 
0.0597724 17.3185 14.2431 
1.25507 18.6564 12.7914 
2.48232 20.1025 14.3228 
2.77037 17.1088 14.2615 
1.44723 18.6683 15.8541 
5.88752 19.7908 14.3224 
4.23171 18.7314 13.1788 
7.22185 18.5883 12.8817 
5.63212 17.0596 14.2899 
4.25232 18.54 15.7955 
7.30581 18.5794 15.8392 
9.89961 18.5689 12.9259 
11.4503 17.0867 14.2935 
8.46109 17.0683 14.2587 
9.97986 18.4078 15.7746 
8.80391 19.9597 14.6008 
11.3942 19.9613 14.4114 
12.8445 18.5168 12.8045 
15.6941 18.6478 12.887 
14.42 20.2131 14.3241 
12.8984 18.6692 15.6012 
15.8241 18.7632 15.9197 
14.5093 17.2529 14.4008 
18.6968 18.6239 12.9968 
17.3559 20.041 14.2592 
20.0893 20.2611 14.2736 
20.0535 17.3024 14.4853 
18.6688 18.5963 15.8888 
17.1849 17.134 14.4856 
21.4471 18.7424 12.9142 
24.2423 18.77 12.8264 
22.8947 17.3208 14.3287 
23.0027 20.2312 14.1601 
21.5865 18.56 15.8228 
24.3669 18.7273 15.7091 
25.7428 19.9651 14.2774 
27.2561 18.6368 12.9527 
28.5083 20.1555 14.2589 
27.3363 18.801 15.7389 
25.7634 17.2511 14.5647 
1.23176 21.4151 12.8617 
1.47639 24.2735 12.7507 
0.115118 22.9432 14.2852 
1.43323 21.4948 16.1628 
1.20363 24.4149 15.8244 
2.6159 22.8789 14.4349 
7.29282 24.1016 12.954 
4.45265 24.206 12.9817 
4.22785 21.5183 13.071 
7.28784 21.5439 13.189 
4.36548 21.3212 15.8376 
7.18538 21.3754 15.8234 
4.31555 24.3008 15.7611 
7.14567 24.3518 15.7239 
5.8436 22.8276 14.3864 
10.0596 24.3736 12.9486 
10.1408 21.5042 12.9847 
11.4542 23.0283 14.3327 
10.1343 21.5132 15.9034 
10.1744 24.4922 15.8791 
8.66127 22.9867 14.5887 
13.0125 24.493 12.8284 
15.8461 24.323 12.7719 
15.8782 21.4895 12.867 
12.9899 21.6152 12.803 
14.4262 23.1674 14.3232 
12.9849 21.6216 15.7669 
15.8548 21.6803 15.7117 
12.8905 24.3139 15.7544 
18.7261 21.7345 12.9466 
18.5482 24.4931 12.8964 
20.1069 23.1157 14.345 
18.8111 21.6725 15.9551 
18.7431 24.4661 15.7459 
17.3353 22.9918 14.4569 
24.5321 24.4652 12.7689 
21.4634 24.4054 12.7444 
24.4126 21.5555 12.8022 
21.3954 21.7164 12.9857 
23.1087 23.1247 14.1246 
21.6008 21.5926 15.7236 
24.3728 21.5406 15.6498 
21.5504 24.4198 15.6098 
24.3998 24.4006 15.6975 
27.2434 24.3095 12.8799 
27.2205 21.5268 12.9378 
27.1632 21.6382 15.7441 
27.2337 24.355 15.7492 
25.7898 23.0824 14.3996 
0.0226524 25.763 14.3196 
2.7268 28.6152 14.217 
0.0232132 28.7079 14.0956 
1.32402 27.2567 12.7473 
2.9743 25.6392 14.3074 
1.46679 26.959 15.8379 
5.75616 28.5727 14.27 
7.05208 27.3042 12.791 
4.23565 27.2003 12.9226 
5.87407 25.754 14.0977 
4.27337 26.9953 15.7005 
7.09865 27.1518 15.7571 
11.4994 25.9181 14.2192 
10.0944 27.28 13.1111 
8.52769 28.5735 14.4429 
10.0569 27.279 15.6542 
8.56522 25.8346 14.5369 
11.3987 28.5935 14.4262 
15.822 27.2721 13.0516 
12.9423 27.2919 12.806 
15.7949 24.6576 15.564 
12.8307 27.362 15.7524 
15.8219 27.3561 15.7701 
14.152 26.0141 14.4073 
17.2996 25.8846 14.3041 
18.6604 27.3856 12.7615 
20.0483 25.8228 14.2284 
18.6325 27.1672 15.6807 
22.9666 25.852 14.1638 
24.3452 27.198 12.8867 
21.435 27.3494 12.8859 
21.5184 27.3636 15.7494 
24.3043 27.4325 15.6914 
27.2417 27.4701 12.763 
25.8367 26.0197 14.2357 
27.4058 27.3228 15.6213 
1.40261 1.21821 18.9036 
2.59779 2.56277 17.1964 
0.0184685 0.154888 16.9676 
2.94282 2.8417 20.1647 
4.45169 1.35785 18.6766 
7.24289 1.40162 18.5372 
5.69314 2.87914 17.2725 
5.83529 2.72156 20.1084 
9.96701 1.30379 18.6356 
8.4881 2.89889 17.155 
11.2607 2.75433 17.1173 
11.4086 0.0186003 17.1208 
8.72534 2.76124 20.0385 
11.3519 2.8005 20.0939 
8.58945 0.0961169 20.1853 
12.7909 1.46106 18.694 
15.7743 1.53322 18.4085 
14.2855 2.70773 17.1677 
14.422 2.91234 19.8417 
18.8333 1.33853 18.6103 
17.214 2.95497 17.1988 
20.0776 2.85912 17.3274 
17.2608 0.121324 17.106 
20.0604 0.10349 17.1039 
16.963 3.01819 20.0266 
20.1277 2.91543 19.8075 
17.2417 0.03049 19.9714 
21.5368 1.4222 18.6733 
22.9324 2.93974 17.2223 
24.3723 1.39172 18.4797 
23.1361 2.83569 20.101 
22.9298 0.0330009 19.9063 
28.6637 2.74163 17.1879 
27.2419 1.48095 18.5186 
25.8861 2.88783 17.1665 
28.6609 2.83662 20.2565 
25.9205 2.81128 20.1375 
25.8487 0.175425 20.0737 
1.39238 4.17527 18.7855 
1.50966 7.22316 18.5928 
2.78984 5.53182 17.2617 
2.89274 5.64428 19.8974 
4.23073 4.20091 18.6945 
4.4234 7.12595 18.6591 
7.20044 4.32082 18.7644 
5.65916 5.74695 17.2408 
7.27806 7.24838 18.5594 
5.71859 5.66527 20.1062 
9.95588 4.39945 18.664 