ITEM: TIMESTEP
58041
ITEM: NUMBER OF ATOMS
2001
ITEM: BOX BOUNDS pp pp pp
0.0000000000000000e+00 2.8712000000000000e+01
0.0000000000000000e+00 2.8712000000000000e+01
0.0000000000000000e+00 2.8712000000000000e+01
ITEM: ATOMS x y z c_cna 
1.43453 1.43451 1.43426 3 
2.8655 2.87527 2.86881 3 
0.00914967 2.85735 2.88605 3 
0.00410569 2.86357 0.00366482 3 
2.86811 0.00114553 2.86768 3 
4.30007 1.44065 1.43008 3 
7.17259 1.43926 1.42972 3 
5.73952 2.87259 2.8678 3 
5.73685 0.00375611 2.86557 3 
10.0433 1.43965 1.42949 3 
8.60864 2.87463 2.86567 3 
11.4788 2.87504 2.86529 3 
11.4787 0.00360513 2.865 3 
8.60811 0.00355485 2.86512 3 
12.9139 1.43947 1.42959 3 
15.7841 1.43839 1.42999 3 
14.3492 2.87444 2.86579 3 
14.3488 0.0029196 2.86535 3 
18.653 1.43589 1.43053 3 
17.2183 2.87227 2.86778 3 
20.082 2.86476 2.87512 3 
17.218 0.000917651 2.86621 3 
21.5195 1.4309 1.43005 3 
22.9229 2.83418 2.90891 3 
24.3836 1.42583 1.44615 3 
27.2704 1.43121 1.43927 3 
25.8335 2.84815 2.89723 3 
25.8124 2.86465 0.0250506 3 
1.42259 4.31833 1.43174 3 
1.48054 7.15001 1.4752 3 
2.88345 5.73175 2.88615 3 
2.87735 5.73686 0.00372989 3 
4.30627 4.3063 1.43437 3 
7.17307 4.31078 1.43037 3 
4.30959 7.18258 1.43946 3 
7.17331 7.18347 1.43211 3 
5.74191 5.74414 2.87071 3 
10.0432 4.31129 1.42972 3 
10.0434 7.18279 1.43033 3 
8.60896 5.74637 2.86662 3 
11.4791 5.74654 2.86563 3 
12.9142 4.31091 1.42983 3 
15.7851 4.30992 1.43057 3 
12.9146 7.18213 1.42993 3 
15.7859 7.18144 1.43026 3 
14.3498 5.74615 2.86586 3 
18.6543 4.30704 1.43331 3 
18.656 7.18074 1.43194 3 
17.2197 5.74531 2.86754 3 
20.0856 5.74384 2.8736 3 
24.3013 4.21263 1.53343 3 
21.5145 4.29499 1.44617 3 
21.5199 7.18164 1.43926 3 
22.9369 5.74474 2.89724 3 
24.349 7.21429 1.47507 3 
22.9533 5.72373 0.0250269 3 
28.7011 5.75181 2.87453 3 
27.303 4.26036 1.47512 3 
25.6848 5.59607 0.395945 5 
27.2708 7.18215 1.39257 5 
25.8248 5.73615 2.90098 3 
1.52815 10.1517 1.53358 3 
2.89261 8.61954 2.89742 3 
2.90657 11.5302 2.90912 3 
2.87623 8.64058 0.0252152 3 
0.144868 8.76831 0.396154 5 
0.00466425 8.62816 2.90107 3 
0.0170538 11.4996 0.0251142 3 
4.31498 10.0694 1.44637 3 
7.17505 10.0573 1.43349 3 
5.74382 8.62041 2.87378 3 
5.74738 11.4996 2.87535 3 
10.0442 10.0544 1.43064 3 
8.60963 8.61893 2.86764 3 
11.4795 8.6181 2.86589 3 
8.611 11.492 2.86795 3 
11.4801 11.4897 2.86586 3 
12.915 10.0533 1.4298 3 
15.7861 10.0528 1.42963 3 
14.3502 8.61767 2.8656 3 
14.3505 11.4891 2.86525 3 
18.6563 10.0533 1.43022 3 
17.2204 8.61778 2.86651 3 
20.0875 8.62 2.87057 3 
17.2207 11.4894 2.8656 3 
20.0899 11.4914 2.86771 3 
21.5231 10.0578 1.43419 3 
22.946 8.63243 2.88603 3 
22.9639 11.4888 2.86876 3 
22.9522 8.6273 0.00357074 3 
24.4069 10.0458 1.43164 3 
28.7079 11.5161 2.89739 3 
27.2385 10.1039 1.47519 3 
25.8404 8.61245 2.87451 3 
25.8202 11.5068 2.88609 3 
25.8254 11.5005 0.00359298 3 
1.44574 12.9385 1.4463 3 
1.43359 15.7985 1.43332 3 
2.87593 14.3709 2.87527 3 
4.30487 15.7998 1.43061 3 
4.3099 12.9335 1.43025 3 
7.17636 12.9285 1.4307 3 
7.1762 15.7997 1.43021 3 
5.74369 14.3673 2.86815 3 
10.0452 12.9259 1.43008 3 
10.0456 15.7975 1.42973 3 
8.6114 14.3633 2.86639 3 
11.4806 14.3612 2.86541 3 
12.9154 12.9247 1.42957 3 
15.786 12.9244 1.4294 3 
12.9156 15.7962 1.42941 3 
15.7862 15.7956 1.42926 3 
14.3507 14.3604 2.86498 3 
18.6567 12.9247 1.42957 3 
18.6574 15.7953 1.42926 3 
17.2213 14.3604 2.86502 3 
20.0925 14.3602 2.8655 3 
21.5293 12.9233 1.42995 3 
21.5279 15.7959 1.42953 3 
22.9612 14.3628 2.86768 3 
24.3948 12.9295 1.4342 3 
24.3993 15.7964 1.43013 3 
28.7087 14.3673 2.87365 3 
27.271 12.9329 1.43932 3 
27.2718 15.7967 1.43187 3 
25.8326 14.3653 2.87055 3 
1.4307 18.6676 1.43043 3 
2.86836 17.2344 2.86779 3 
2.86615 20.1034 2.86564 3 
4.30232 18.6686 1.42993 3 
7.17407 18.669 1.42967 3 
5.73985 17.2348 2.86629 3 
5.73778 20.1039 2.86528 3 
10.045 18.6684 1.42949 3 
8.61066 17.234 2.86563 3 
11.4806 17.2325 2.86506 3 
8.60916 20.1039 2.86503 3 
11.4799 20.1032 2.86484 3 
12.9155 18.6673 1.42932 3 
15.7862 18.6666 1.4292 3 
14.3508 17.2316 2.86478 3 
14.3505 20.1023 2.86472 3 
18.6571 18.6665 1.42916 3 
17.2216 17.2311 2.86472 3 
20.0923 17.2314 2.86496 3 
17.2212 20.102 2.8647 3 
20.0923 20.1021 2.86481 3 
21.5282 18.6667 1.42925 3 
24.3997 18.6666 1.42947 3 
22.9632 17.232 2.86549 3 
22.9635 20.1023 2.86508 3 
28.7064 20.1029 2.86562 3 
28.7072 17.2331 2.86745 3 
27.2711 18.6668 1.43007 3 
25.8348 17.2324 2.8664 3 
25.8349 20.1025 2.8654 3 
1.42973 21.5383 1.42958 3 
2.86556 22.9737 2.86507 3 
1.42935 24.4094 1.42946 3 
4.30098 24.4093 1.42932 3 
4.30123 21.5387 1.42944 3 
7.17281 21.5389 1.42935 3 
5.73703 22.9739 2.86488 3 
7.17228 24.4095 1.42926 3 
10.044 21.5387 1.4293 3 
8.60824 22.9741 2.86476 3 
11.4791 22.9737 2.86472 3 
10.0433 24.4094 1.42925 3 
12.9148 21.538 1.42926 3 
15.7855 21.5374 1.42923 3 
14.3496 22.9729 2.86479 3 
15.7844 24.4078 1.42938 3 
12.914 24.4088 1.42928 3 
18.6565 21.5372 1.42924 3 
17.2203 22.9723 2.86493 3 
20.0915 22.9723 2.86521 3 
18.6552 24.4072 1.42953 3 
21.528 21.5374 1.42935 3 
24.3993 21.5377 1.42955 3 
22.9629 22.9727 2.86558 3 
24.3984 24.4086 1.43035 3 
21.5269 24.4077 1.42982 3 
28.7061 22.9736 2.86536 3 
27.2705 21.538 1.42967 3 
25.8345 22.9732 2.86562 3 
27.2699 24.4093 1.43004 3 
1.42995 27.2796 1.43016 3 
2.866 25.8439 2.86549 3 
4.30137 27.28 1.42961 3 
7.17194 27.2807 1.42936 3 
5.73703 25.8444 2.865 3 
10.0432 27.2804 1.42932 3 
8.60782 25.8448 2.86478 3 
11.4786 25.8445 2.86478 3 
12.9138 27.2799 1.42939 3 
15.7837 27.2787 1.42962 3 
14.3489 25.8436 2.86499 3 
20.0856 28.7091 2.86794 3 
18.6531 27.2766 1.43004 3 
17.2187 25.8422 2.86549 3 
20.0894 25.8414 2.86615 3 
22.9534 28.7054 2.87505 3 
21.5244 27.2765 1.43044 3 
22.9608 25.8418 2.86767 3 
24.3956 27.2777 1.4332 3 
28.7087 28.7108 2.8705 3 
25.8325 28.7089 2.87351 3 
28.7063 25.8437 2.86636 3 
27.2694 27.2794 1.43184 3 
25.8338 25.8431 2.86737 3 
1.43699 1.43139 4.31052 3 
1.43236 1.43599 7.17708 3 
2.86754 2.87313 5.74181 3 
4.30259 1.43802 4.30362 3 
7.17399 1.43784 4.30216 3 
4.30305 1.43752 7.17526 3 
7.1746 1.43726 7.17429 3 
5.74092 2.8714 5.74126 3 
5.73816 0.00237292 5.73805 3 
10.0438 1.4388 4.301 3 
10.0443 1.43813 7.1728 3 
8.6098 2.87351 5.73809 3 
11.4792 2.87432 5.73694 3 
11.4788 0.00291011 5.7365 3 
8.60883 0.00265595 5.73694 3 
12.9139 1.43876 4.30107 3 
15.7832 1.43732 4.30241 3 
12.9138 1.43824 7.17266 3 
15.7827 1.43728 7.17428 3 
14.3487 2.87402 5.73752 3 
14.3483 0.0021498 5.73723 3 
18.6497 1.43286 4.30684 3 
18.6505 1.43502 7.17803 3 
17.217 2.87248 5.74027 3 
20.0825 2.86909 5.74691 3 
21.509 1.42034 4.32072 3 
24.3926 1.42312 4.31886 3 
21.5212 1.43252 7.18048 3 
24.3966 1.43332 7.17926 3 
22.9539 2.86517 5.74959 3 
28.7093 2.86991 5.74471 3 
27.2744 1.42719 4.31466 3 
27.2713 1.43475 7.17796 3 
25.8332 2.86772 5.7462 3 
1.43058 4.3102 4.30867 3 
1.43882 7.17985 4.31279 3 
1.43109 4.30961 7.17662 3 
1.43236 7.18239 7.17641 3 
2.87074 5.74349 5.74477 3 
4.31348 7.1785 4.31485 3 
7.17556 4.30869 4.30397 3 
4.30927 4.30376 4.31065 3 
7.17667 7.18164 4.30555 3 
7.17587 4.30863 7.17573 3 
4.30586 7.18152 7.17805 3 
4.30461 4.30832 7.17711 3 
5.74314 5.74344 5.74361 3 
7.17691 7.18135 7.17677 3 
10.0442 4.31024 4.30162 3 
10.0447 7.18215 4.30221 3 
10.0449 4.30972 7.17343 3 
8.6106 5.74542 5.73907 3 
10.0455 7.18184 7.17393 3 
11.4796 5.74607 5.73729 3 
12.9143 4.31039 4.30132 3 
15.784 4.3097 4.30253 3 
12.9146 7.1821 4.30142 3 
15.7846 7.18202 4.30213 3 
12.9142 4.31007 7.17286 3 
15.7832 4.30982 7.17419 3 
12.9147 7.18206 7.17294 3 
14.3492 5.7461 5.73746 3 
15.7838 7.18227 7.17386 3 
18.6514 4.30908 7.17752 3 
18.6512 4.3078 4.30675 3 
18.6527 7.18249 4.30542 3 
17.218 5.74591 5.73976 3 
18.6524 7.18274 7.17668 3 
20.0845 5.74588 5.74527 3 
21.5119 4.3039 4.3189 3 
21.516 7.1857 4.3147 3 
24.3906 7.18439 4.31271 3 
21.5221 4.30787 7.17925 3 
24.3958 4.30699 7.17753 3 
21.5235 7.18258 7.17801 3 
22.9565 5.74442 5.74623 3 
24.397 7.18174 7.17641 3 
24.3859 4.29714 4.31818 3 
27.2731 4.30195 4.31272 3 
27.2707 7.18214 4.30606 3 
28.7066 5.74618 5.74226 3 
27.2705 4.30828 7.17636 3 
25.8319 5.74323 5.74297 3 
27.2707 7.18208 7.17516 3 
1.44355 10.0672 4.31832 3 
1.43358 10.0572 7.17761 3 
2.87292 8.6198 5.74632 3 
2.87544 11.4991 5.74975 3 
4.31757 10.0604 4.31909 3 
7.17819 10.0564 4.30692 3 
4.3073 10.0563 7.17936 3 
5.74492 8.61829 5.74542 3 
7.17797 10.055 7.17766 3 
5.74687 11.4951 5.7471 3 
10.0454 10.0545 4.30263 3 
8.61142 8.61825 5.73987 3 
10.0461 10.0543 7.17429 3 
11.4801 8.61805 5.73753 3 
8.6124 11.4917 5.74042 3 
11.4806 11.4901 5.73759 3 
12.9151 10.0538 4.30134 3 
15.7851 10.0539 4.30156 3 
12.9152 10.054 7.17291 3 
14.3497 8.61807 5.73727 3 
15.7844 10.0544 7.17345 3 
14.3502 11.4898 5.73697 3 
18.6538 10.0554 4.30391 3 
17.2187 8.61869 5.73901 3 
18.6535 10.0554 7.17573 3 
20.0862 8.62063 5.74355 3 
17.2196 11.4905 5.73809 3 
20.0884 11.4926 5.74127 3 
21.5201 10.0603 4.31056 3 
24.3988 10.0539 4.30867 3 
21.5247 10.0557 7.17716 3 
22.9586 8.62062 5.74476 3 
22.9618 11.4909 5.74187 3 
24.3982 10.0545 7.17671 3 
27.2683 10.0623 4.3128 3 
28.7095 8.621 5.74301 3 
28.7082 11.4965 5.74632 3 
25.8347 8.61802 5.7423 3 
27.2709 10.0559 7.17644 3 
25.832 11.4942 5.74482 3 
1.43673 12.9412 4.31906 3 
1.43276 15.8017 4.3068 3 
1.43267 12.9309 7.17938 3 
1.4314 15.8015 7.17762 3 
2.8715 14.3705 5.74706 3 
4.32036 12.944 4.32096 3 
4.30781 15.8032 4.30697 3 
7.17969 12.9314 4.30704 3 
7.17727 15.8007 4.30328 3 
4.30812 12.9317 7.18062 3 
4.30558 15.8023 7.17811 3 
7.17879 12.9292 7.17815 3 
5.74679 14.3704 5.74637 3 
7.1781 15.8016 7.17698 3 
10.0462 12.9269 4.30254 3 
10.0461 15.7981 4.30154 3 
10.0467 12.9269 7.17438 3 
8.61283 14.3646 5.74003 3 
10.0467 15.7987 7.17383 3 
11.481 14.362 5.73731 3 
12.9155 12.9254 4.3011 3 
15.7855 12.9252 4.30098 3 
12.9157 15.7967 4.3007 3 
15.786 15.7962 4.30049 3 
12.9156 12.9258 7.17272 3 
15.7851 12.9259 7.17286 3 
12.9159 15.7972 7.17234 3 
14.3506 14.3611 5.73655 3 
15.7856 15.7968 7.17217 3 
18.6554 12.9261 4.30215 3 
18.6567 15.7961 4.30083 3 
18.6547 12.9267 7.17437 3 
17.2206 14.3613 5.73698 3 
18.656 15.7969 7.17281 3 
20.0912 14.3616 5.73811 3 
21.5267 12.9259 4.30362 3 
21.5265 15.7974 4.30208 3 
24.3923 12.9326 4.31059 3 
24.3972 15.799 4.30386 3 
21.5262 12.9265 7.17536 3 
21.526 15.7981 7.17439 3 
22.96 14.3643 5.74126 3 
24.3968 12.9281 7.17719 3 
24.3972 15.7994 7.17578 3 
27.2669 12.937 4.3148 3 
27.27 15.8001 4.30541 3 
28.7066 14.3684 5.74537 3 
27.2699 12.9294 7.1781 3 
25.8319 14.3666 5.7436 3 
27.2698 15.8004 7.17677 3 
1.43083 18.6688 4.30244 3 
1.43065 18.6696 7.17418 3 
2.86806 17.2359 5.7403 3 
2.86653 20.104 5.73743 3 
4.30331 18.6696 4.3024 3 
7.17468 18.6695 4.30148 3 
4.30327 18.6701 7.1743 3 
5.74111 17.2363 5.73996 3 
7.17529 18.6701 7.17378 3 
5.73847 20.1044 5.73722 3 
10.0453 18.6686 4.30083 3 
8.61128 17.2347 5.73785 3 
10.0457 18.669 7.17255 3 
11.4809 17.233 5.73659 3 
8.6096 20.1041 5.73658 3 
11.4801 20.1034 5.73609 3 
12.9155 18.6675 4.30041 3 
15.786 18.6668 4.30026 3 
12.9156 18.6679 7.1718 3 
14.3508 17.232 5.73608 3 
15.7857 18.6672 7.17172 3 
14.3504 20.1025 5.7359 3 
18.6566 18.6669 4.30044 3 
17.2212 17.2317 5.7362 3 
18.6561 18.6673 7.17213 3 
20.0914 17.2323 5.73693 3 
17.2209 20.1021 5.73605 3 
20.0917 20.1023 5.73644 3 
21.5274 18.6673 4.30085 3 
21.5268 18.6678 7.17283 3 
22.9621 17.2333 5.73804 3 
22.9629 20.1027 5.73684 3 
24.3983 18.6684 7.17342 3 
24.3987 18.6677 4.30145 3 
27.2705 18.6682 4.30199 3 
28.7064 20.1035 5.73734 3 
28.7066 17.2349 5.73974 3 
25.8338 17.2341 5.73897 3 
27.2703 18.669 7.17384 3 
25.8345 20.1031 5.73716 3 
1.43017 21.5384 4.30112 3 
1.43038 24.4083 4.30141 3 
1.43045 21.5385 7.17279 3 
2.86624 22.9734 5.73682 3 
1.43086 24.4077 7.17335 3 
4.30229 21.5389 7.17262 3 
4.30177 24.4087 4.30087 3 
4.30186 21.5388 4.30093 3 
7.17325 21.5389 4.30062 3 
7.17279 24.4091 4.30046 3 
7.17375 21.5391 7.17228 3 
5.73766 22.9737 5.73642 3 
7.1733 24.4087 7.17209 3 
4.30241 24.4082 7.17275 3 
10.0442 21.5387 4.30038 3 
10.0435 24.4091 4.30029 3 
10.0445 21.5388 7.17181 3 
8.60861 22.9739 5.73605 3 
11.4792 22.9736 5.73591 3 
10.0438 24.4089 7.1717 3 
12.9148 21.5381 4.30029 3 
15.7853 21.5373 4.30034 3 
12.914 24.4085 4.30036 3 
15.7842 24.4075 4.30075 3 
12.9148 21.5381 7.17161 3 
15.785 21.5373 7.1718 3 
14.3495 22.9728 5.73605 3 
15.7839 24.4072 7.17252 3 
12.914 24.4083 7.1718 3 
18.6561 21.5371 4.30057 3 
18.6547 24.4067 4.3014 3 
18.6556 21.537 7.17228 3 
17.2199 22.972 5.7365 3 
20.0908 22.9718 5.73718 3 
18.6541 24.4061 7.17374 3 
21.5273 21.5373 4.30091 3 
24.3988 21.5377 4.30112 3 
21.5259 24.4067 4.30233 3 
24.3982 24.4074 4.30239 3 
21.5269 21.5373 7.17265 3 
22.9625 22.9722 5.73741 3 
24.3984 24.4066 7.17417 3 
24.3986 21.5377 7.17282 3 
21.5259 24.4061 7.17427 3 
28.7065 22.973 5.73711 3 
27.2705 21.5381 4.30117 3 
27.2705 24.408 4.30194 3 
27.2705 21.5381 7.17285 3 
25.8346 22.9727 5.73733 3 
27.2708 24.4072 7.1738 3 
1.43201 27.277 4.30379 3 
2.86921 28.7117 5.74118 3 
1.43201 27.2767 7.17565 3 
2.86709 25.8427 5.73797 3 
4.30274 27.2786 4.30207 3 
7.17271 27.2798 4.30085 3 
4.3033 27.2779 7.17426 3 
5.73788 25.8437 5.73689 3 
7.17338 27.2791 7.1727 3 
10.0435 27.2798 4.30053 3 
8.60828 25.8443 5.7362 3 
10.0438 27.2792 7.1721 3 
11.4787 25.844 5.73608 3 
12.9137 27.2794 4.30066 3 
15.7833 27.2781 4.30145 3 
12.9136 27.2789 7.17228 3 
14.3487 25.8432 5.73654 3 
15.7827 27.2774 7.17376 3 
17.2165 28.7116 5.73988 3 
20.0826 28.7059 5.74619 3 
18.6521 27.2755 4.30314 3 
17.2182 25.8415 5.73779 3 
18.6513 27.2747 7.1769 3 
20.0882 25.84 5.73986 3 
24.3964 27.2746 4.30666 3 
22.9578 28.7058 5.74689 3 
21.5214 27.2731 4.30681 3 
21.5237 27.274 7.17803 3 
22.9611 25.8404 5.74023 3 
24.3978 27.2747 7.17753 3 
28.7093 28.7095 5.74346 3 
28.7072 25.842 5.7389 3 
27.2711 27.276 4.3053 3 
25.8346 28.7077 5.74522 3 
25.8345 25.8413 5.73968 3 
27.2714 27.2757 7.17666 3 
2.8669 2.87371 8.61067 3 
2.86736 0.00147233 8.61039 3 
1.43082 1.43784 10.0452 3 
2.86636 2.8743 11.4796 3 
2.86654 0.00247988 11.4796 3 
5.73903 2.87323 8.61041 3 
4.30242 1.43812 10.0448 3 
7.17381 1.43797 10.0444 3 
5.73804 2.87407 11.4796 3 
5.73823 0.00229148 8.60924 3 
5.73786 0.00266843 11.4793 3 
8.60982 2.87348 8.60938 3 
11.4793 2.87398 8.6084 3 
11.4789 0.00252113 8.60803 3 
8.60908 0.002312 8.60852 3 
10.0442 1.43808 10.0439 3 
8.60914 2.87391 11.4793 3 
11.4792 2.87398 11.4792 3 
8.60876 0.00258188 11.4791 3 
11.4788 0.00247317 11.479 3 
14.3485 2.87393 8.60887 3 
14.3482 0.00200956 8.60873 3 
12.9138 1.43811 10.0438 3 
15.7831 1.43769 10.0448 3 
14.3486 2.87397 11.4794 3 
14.3484 0.00214012 11.4793 3 
17.2175 2.87326 8.61083 3 
20.0879 2.87227 8.61246 3 
17.2172 0.000627999 8.61081 3 
18.6533 1.43696 10.046 3 
17.2187 2.87375 11.4799 3 
20.09 2.87344 11.4802 3 
17.2185 0.00158359 11.48 3 
20.0898 0.00120049 11.4803 3 
22.9604 2.87167 8.61212 3 
21.5252 1.43651 10.0463 3 
22.9621 2.87342 11.48 3 
24.398 1.43685 10.0458 3 
22.9622 0.00137928 11.4803 3 
28.7069 2.87315 8.61089 3 
28.7065 2.87413 11.4797 3 
25.834 2.87236 8.61111 3 
28.7067 0.00219827 11.4798 3 
27.2706 1.4374 10.0454 3 
25.8344 2.87375 11.4798 3 
28.7074 0.000730734 8.61112 3 
25.8346 0.0017879 11.4801 3 
2.86746 5.74585 8.61089 3 
1.43052 4.31015 10.045 3 
1.43091 7.18241 10.0448 3 
2.86649 5.74629 11.4797 3 
5.73983 5.74532 8.61114 3 
4.30321 7.18212 10.0454 3 
7.17435 4.3096 10.045 3 
4.30272 4.30987 10.0452 3 
7.17494 7.1818 10.0454 3 
5.73842 5.74597 11.4797 3 
10.0448 4.30975 10.0443 3 
8.61052 5.74546 8.61004 3 
11.4798 5.74588 8.6087 3 
10.0453 7.18182 10.0446 3 
8.60963 5.74578 11.4796 3 
11.4797 5.74589 11.4793 3 
14.349 5.74608 8.60884 3 
12.9142 4.30997 10.044 3 
15.7835 4.30994 10.0447 3 
12.9147 7.18204 10.044 3 
15.784 7.1822 10.0446 3 
14.3491 5.74606 11.4793 3 
17.2181 5.74609 8.61048 3 
20.0887 5.7458 8.61175 3 
18.6538 4.30964 10.0457 3 
18.6544 7.18217 10.0454 3 
17.2192 5.74603 11.4798 3 
20.0904 5.74583 11.48 3 
22.9611 5.74523 8.61111 3 
21.5255 4.30926 10.0458 3 
21.5261 7.18187 10.0454 3 
22.9624 5.74564 11.4798 3 
24.3984 7.18165 10.0448 3 
24.398 4.30924 10.0451 3 
28.7066 5.7461 8.61011 3 
28.7065 5.74624 11.4795 3 
25.834 5.74526 8.60991 3 
27.2704 4.30974 10.0448 3 
27.2707 7.18205 10.0445 3 
25.8345 5.74583 11.4795 3 
2.86823 8.61887 8.61113 3 
2.86892 11.4925 8.61219 3 
1.43138 10.0549 10.0451 3 
2.86692 8.61844 11.4797 3 
2.86724 11.4908 11.48 3 
5.74068 8.61827 8.61182 3 
5.74152 11.4919 8.61253 3 
4.30382 10.0549 10.0458 3 
7.17555 10.0545 10.0458 3 
5.73891 8.61823 11.4799 3 
5.73939 11.4907 11.4801 3 
8.61123 8.61797 8.61056 3 
11.4804 8.61801 8.60888 3 
8.61187 11.4909 8.61094 3 
11.4809 11.4902 8.60895 3 
11.4802 8.61801 11.4793 3 
10.0459 10.0541 10.0448 3 
8.61014 8.618 11.4798 3 
8.61065 11.4904 11.4799 3 
11.4807 11.4901 11.4794 3 
14.3495 8.61818 8.60868 3 
14.3501 11.4901 8.60848 3 
12.9152 10.0541 10.044 3 
15.7846 10.0543 10.0443 3 
14.3496 8.61815 11.4793 3 
14.3502 11.4901 11.4792 3 
17.2188 8.61857 8.61003 3 
20.0895 8.61868 8.61117 3 
17.2195 11.4905 8.60944 3 
20.0903 11.4907 8.6105 3 
18.655 10.0543 10.045 3 
17.2197 8.61818 11.4796 3 
20.0909 8.61798 11.4798 3 
17.2202 11.4901 11.4794 3 
20.0912 11.4899 11.4797 3 
22.9618 8.61821 8.61094 3 
22.9623 11.4903 8.61079 3 
21.5266 10.0541 10.0453 3 
22.9628 8.61772 11.4797 3 
22.9629 11.4897 11.4798 3 
24.3988 10.0539 10.0451 3 
28.7074 8.61885 8.60994 3 
28.7069 11.4904 11.4798 3 
28.7068 8.61828 11.4795 3 
28.7073 11.4918 8.61119 3 
25.8347 8.61801 8.61015 3 
25.8343 11.4909 8.61098 3 
27.2709 10.0544 10.0448 3 
25.8348 8.61782 11.4795 3 
25.8348 11.4899 11.4798 3 
2.86831 14.3651 8.61251 3 
1.43127 12.9273 10.0458 3 
1.43087 15.7991 10.0458 3 
2.86718 14.3629 11.4802 3 
5.74162 14.3652 8.61268 3 
4.30417 12.9277 10.0463 3 
4.30367 15.7996 10.046 3 
7.17604 12.9273 10.046 3 
7.17591 15.7994 10.0458 3 
5.73956 14.3631 11.4802 3 
8.61219 14.3636 8.61087 3 
11.4812 14.3621 8.60878 3 
10.0463 12.9265 10.0449 3 
10.0464 15.7984 10.0446 3 
8.61092 14.3627 11.4799 3 
11.481 14.362 11.4793 3 
14.3505 14.3615 8.60811 3 
12.9156 12.926 10.0439 3 
15.7852 12.926 10.044 3 
12.9159 15.7974 10.0437 3 
15.7856 15.797 10.0436 3 
14.3506 14.3616 11.4791 3 
17.2203 14.3617 8.60862 3 
20.0911 14.3617 8.6094 3 
18.6555 12.926 10.0446 3 
18.656 15.7969 10.044 3 
17.2206 14.3615 11.4792 3 
20.0914 14.3613 11.4795 3 
22.9619 14.3625 8.61055 3 
21.5269 12.9258 10.045 3 
21.5267 15.7973 10.0446 3 
22.9627 14.3615 11.4798 3 
24.3982 15.7979 10.0451 3 
24.3984 12.9262 10.0453 3 
28.7067 14.3624 11.4801 3 
28.7067 14.3642 8.61188 3 
25.8338 14.3634 8.61126 3 
27.2706 12.9267 10.0455 3 
27.2703 15.7984 10.0455 3 
25.8345 14.3619 11.4799 3 
2.86723 17.2354 8.6109 3 
2.86655 20.1042 8.60887 3 
1.43051 18.6693 10.0448 3 
2.86681 17.2341 11.48 3 
2.86655 20.1041 11.4795 3 
5.74005 17.2357 8.61085 3 
5.73858 20.1045 8.60874 3 
4.30287 18.6697 10.0448 3 
7.17486 18.6697 10.0446 3 
5.73911 17.2344 11.4799 3 
5.73849 20.1043 11.4793 3 
8.6115 17.2349 8.60987 3 
11.4811 17.2334 8.60825 3 
8.60996 20.1043 8.60824 3 
11.4803 20.1035 8.60759 3 
10.0458 18.6691 10.044 3 
8.61067 17.2341 11.4797 3 
11.481 17.2333 11.4792 3 
8.60984 20.1042 11.4792 3 
11.4803 20.1036 11.4789 3 
14.3507 17.2324 8.60763 3 
14.3503 20.1027 8.60737 3 
12.9156 18.6681 10.0433 3 
15.7855 18.6674 10.0432 3 
14.3507 17.2326 11.4789 3 
14.3502 20.1028 11.4788 3 
17.2208 17.2321 8.60785 3 
20.0911 17.2326 8.60864 3 
17.2205 20.1022 8.60763 3 
20.0913 20.1024 8.60811 3 
18.6559 18.6674 10.0436 3 
17.2208 17.2322 11.479 3 
20.0914 17.2323 11.4793 3 
17.2204 20.1023 11.479 3 
20.0912 20.1024 11.4792 3 
22.9622 17.2334 8.60949 3 
22.9626 20.1029 8.60847 3 
21.5269 18.6678 10.0441 3 
22.9626 17.2327 11.4796 3 
22.9627 20.1027 11.4793 3 
24.3984 18.6683 10.0444 3 
28.7064 20.1038 8.60886 3 
28.7064 17.2347 8.61055 3 
25.834 17.2341 8.6101 3 
25.8344 20.1033 8.6087 3 
28.7065 20.1037 11.4795 3 
28.7065 17.2336 11.4799 3 
27.2703 18.6688 10.0447 3 
25.8344 17.2331 11.4798 3 
25.8345 20.1032 11.4794 3 
2.86651 22.9733 8.60841 3 
1.43079 24.4079 10.0444 3 
1.43053 21.5386 10.044 3 
2.86656 22.9735 11.4792 3 
5.73803 22.9737 8.60803 3 
7.17351 24.4087 10.0435 3 
4.30241 21.5389 10.0439 3 
4.30244 24.4083 10.0439 3 
7.17393 21.5391 10.0436 3 
5.7381 22.9738 11.4791 3 
8.60898 22.9738 8.60761 3 
11.4793 22.9735 8.60736 3 
10.0439 24.4087 10.0431 3 
10.0447 21.5388 10.0433 3 
8.60906 22.9738 11.4789 3 
11.4793 22.9734 11.4788 3 
14.3493 22.9726 8.60761 3 
15.7838 24.4071 10.044 3 
12.9139 24.4081 10.0433 3 
14.3492 22.9726 11.479 3 
12.9148 21.5381 10.0431 3 
15.7848 21.5373 10.0433 3 
17.2196 22.9719 8.60828 3 
20.0907 22.9717 8.60876 3 
20.0909 22.9719 11.4795 3 
17.2196 22.972 11.4793 3 
18.6546 24.4065 10.0447 3 
18.6555 21.5371 10.0437 3 
22.9626 22.972 8.60892 3 
24.3986 21.5377 10.0441 3 
22.9627 22.9722 11.4795 3 
24.3986 24.407 10.0448 3 
21.5264 24.4066 10.0449 3 
21.5268 21.5373 10.044 3 
28.7067 22.9729 8.60867 3 
25.8346 22.9724 8.60885 3 
27.2708 24.4074 10.0447 3 
25.8347 22.9726 11.4795 3 
27.2705 21.5381 10.0441 3 
28.7067 22.973 11.4794 3 
2.86706 25.8427 8.60936 3 
1.43101 27.2782 10.045 3 
2.86666 25.8434 11.4795 3 
5.73818 25.8434 8.60851 3 
7.1734 27.2791 10.0438 3 
5.73796 25.8438 11.4791 3 
4.30257 27.2787 10.0445 3 
8.60863 25.8439 8.60775 3 
11.4788 25.8437 8.6076 3 
10.0439 27.279 10.0435 3 
8.60866 25.8439 11.4789 3 
11.4788 25.8436 11.4789 3 
14.3485 25.8428 8.60827 3 
12.9136 27.2787 10.0436 3 
15.7831 27.2779 10.0446 3 
14.3485 25.8429 11.4792 3 
20.0877 28.7111 8.61261 3 
17.218 25.8413 8.60987 3 
20.0893 25.8407 8.61085 3 
20.0903 25.8419 11.48 3 
18.6535 27.2769 10.0458 3 
17.2188 25.8422 11.4798 3 
22.961 28.7112 8.61248 3 
22.9619 25.8409 8.61088 3 
24.3984 27.2772 10.0458 3 
22.9624 25.8422 11.48 3 
21.5256 27.2768 10.0461 3 
28.7071 25.8421 8.61003 3 
28.7068 25.843 11.4797 3 
25.8345 28.712 8.61177 3 
25.8347 25.8415 8.61054 3 
25.8347 25.8426 11.4799 3 
27.2709 27.2777 10.0455 3 
1.43051 1.4384 12.9144 3 
1.43091 1.43796 15.7836 3 
2.8664 2.87433 14.349 3 
2.86659 0.00255682 14.3491 3 
4.30215 1.43847 12.9143 3 
7.17345 1.43833 12.9142 3 
5.73811 2.87409 14.349 3 
5.7379 0.00272778 14.3492 3 
4.3025 1.43822 15.7838 3 
7.17385 1.43803 15.7841 3 
10.044 1.43821 12.9143 3 
11.4791 2.87398 14.3495 3 
8.60877 0.00262329 14.3495 3 
10.0442 1.43813 15.7847 3 
8.60914 2.87394 14.3492 3 
11.4788 0.002496 14.3496 3 
12.9137 1.43812 12.9143 3 
15.7835 1.43788 12.9144 3 
14.3486 2.874 14.3494 3 
12.9137 1.43816 15.7849 3 
15.783 1.43772 15.784 3 
14.3483 0.00215699 14.3495 3 
18.6542 1.43758 12.9145 3 
18.6532 1.43703 15.783 3 
20.0899 2.87352 14.3488 3 
17.2186 2.87379 14.3489 3 
17.2184 0.00162665 14.349 3 
20.0898 0.0012384 14.3488 3 
21.5261 1.43746 12.9146 3 
24.3984 1.43774 12.9145 3 
21.5251 1.43658 15.7828 3 
24.398 1.43696 15.7832 3 
22.9621 2.87346 14.349 3 
22.9621 0.00140892 14.3489 3 
28.7068 0.00227194 14.349 3 
27.2706 1.43813 12.9145 3 
25.8346 0.00186286 14.349 3 
27.2707 1.43752 15.7835 3 
25.8344 2.87382 14.3492 3 
28.7065 2.8742 14.3491 3 
1.43037 4.31034 12.9144 3 
1.43059 7.18235 12.9144 3 
1.43063 4.3102 15.7838 3 
1.431 7.18238 15.784 3 
2.86656 5.74628 14.349 3 
4.30223 4.31021 12.9143 3 
4.30257 7.18224 12.9143 3 
4.30331 7.18211 15.7833 3 
7.17378 4.30992 12.9143 3 
7.17423 7.18194 12.9143 3 
5.73845 5.74594 14.3489 3 
4.30281 4.30988 15.7834 3 
7.17441 4.30961 15.7836 3 
7.17502 7.18176 15.7832 3 
10.0445 4.30985 12.9143 3 
10.045 7.18187 12.9143 3 
11.4797 5.74588 14.3493 3 
10.0447 4.30974 15.7843 3 
10.0453 7.18178 15.7841 3 
8.60966 5.74577 14.349 3 
12.9141 4.30998 12.9143 3 
15.7838 4.31001 12.9144 3 
12.9147 7.18204 12.9143 3 
15.7843 7.18214 12.9143 3 
12.9141 4.30999 15.7847 3 
15.7833 4.31002 15.784 3 
12.9146 7.18203 15.7847 3 
15.7839 7.18223 15.7842 3 
14.3491 5.74607 14.3494 3 
18.6546 4.30983 12.9145 3 
18.655 7.18202 12.9144 3 
18.6536 4.30972 15.7831 3 
18.6542 7.18224 15.7834 3 
20.0903 5.74586 14.3489 3 
17.2191 5.74608 14.349 3 
24.3984 4.30976 12.9145 3 
21.5263 4.30968 12.9145 3 
21.5267 7.18177 12.9144 3 
24.3987 7.18174 12.9145 3 
21.5254 4.30937 15.7832 3 
24.398 4.30933 15.7839 3 
21.526 7.18194 15.7834 3 
24.3984 7.18172 15.7841 3 
22.9624 5.74569 14.3492 3 
28.7065 5.74625 14.3493 3 
27.2705 4.31011 12.9144 3 
27.2707 7.18206 12.9144 3 
25.8345 5.74585 14.3494 3 
27.2705 4.30983 15.7841 3 
27.2707 7.18204 15.7844 3 
1.43094 10.0544 12.9144 3 
2.86733 11.4907 14.3489 3 
1.43145 10.0548 15.7837 3 
2.86697 8.61843 14.3491 3 
4.303 10.0544 12.9144 3 
7.17473 10.0542 12.9144 3 
5.73896 8.61819 14.3488 3 
4.30394 10.0548 15.783 3 
7.17567 10.0544 15.7829 3 
5.73947 11.4907 14.3486 3 
10.0455 10.0541 12.9144 3 
10.0459 10.0541 15.7839 3 
8.61019 8.61796 14.3489 3 
8.6107 11.4904 14.3488 3 
11.4802 8.61798 14.3493 3 
11.4807 11.4901 14.3493 3 
12.9152 10.0541 12.9143 3 
15.7848 10.0542 12.9143 3 
14.3496 8.61815 14.3494 3 
14.3501 11.4901 14.3495 3 
12.9152 10.0541 15.7847 3 
15.7845 10.0543 15.7844 3 
18.6555 10.054 12.9144 3 
20.0908 8.61799 14.349 3 
17.2201 11.49 14.3493 3 
17.2196 8.61819 14.3491 3 
18.6548 10.0544 15.7837 3 
20.0912 11.4898 14.3491 3 
22.9629 11.4896 14.3491 3 
21.527 10.0537 12.9144 3 
24.3989 10.0537 12.9144 3 
22.9627 8.61773 14.3492 3 
21.5264 10.0541 15.7835 3 
24.3987 10.0538 15.7838 3 
27.2709 10.054 12.9144 3 
25.8348 11.4899 14.3492 3 
28.7069 8.61825 14.3494 3 
27.271 10.0543 15.7841 3 
28.707 11.4903 14.3491 3 
25.8349 8.61782 14.3494 3 
1.43099 12.9265 12.9145 3 
1.43076 15.7982 12.9145 3 
1.43138 12.9273 15.7831 3 
1.43098 15.799 15.7831 3 
2.86726 14.3629 14.3487 3 
4.30314 15.7986 12.9144 3 
4.30331 12.9268 12.9144 3 
7.17516 12.9267 12.9144 3 
7.17514 15.7986 12.9144 3 
5.73962 14.363 14.3486 3 
4.30379 15.7995 15.7829 3 
4.3043 12.9277 15.7826 3 
7.17615 12.9272 15.7828 3 
7.17597 15.7994 15.7831 3 
10.0459 12.9263 12.9144 3 
10.046 15.7981 12.9144 3 
8.61097 14.3627 14.3489 3 
11.481 14.362 14.3494 3 
10.0463 12.9265 15.7839 3 
10.0464 15.7984 15.7842 3 
12.9156 12.926 12.9144 3 
15.7853 12.9259 12.9143 3 
12.9159 15.7974 12.9144 3 
15.7856 15.797 12.9144 3 
14.3506 14.3616 14.3497 3 
12.9156 12.926 15.7849 3 
15.7851 12.9259 15.7848 3 
12.9159 15.7974 15.7852 3 
15.7855 15.797 15.7853 3 
18.6558 12.9257 12.9144 3 
18.6561 15.7968 12.9144 3 
17.2206 14.3614 14.3495 3 
20.0914 14.3613 14.3493 3 
18.6554 12.926 15.7842 3 
18.6559 15.7969 15.7849 3 
21.5272 12.9255 12.9144 3 
21.527 15.7969 12.9144 3 
24.3988 12.9256 12.9145 3 
24.3986 15.7972 12.9145 3 
21.5268 12.9258 15.7838 3 
21.5267 15.7972 15.7843 3 
24.3982 15.7977 15.7838 3 
24.3984 12.9261 15.7836 3 
22.9627 14.3615 14.3492 3 
28.7068 14.3623 14.3489 3 
27.2708 12.926 12.9145 3 
27.2705 15.7977 12.9145 3 
25.8346 14.3618 14.3491 3 
27.2707 12.9266 15.7834 3 
27.2704 15.7983 15.7835 3 
1.43056 18.6689 12.9145 3 
1.43066 18.6692 15.7841 3 
2.86663 20.1041 14.3495 3 
2.86689 17.2341 14.3489 3 
5.73852 20.1043 14.3495 3 
4.30275 18.6693 12.9144 3 
7.17458 18.6694 12.9144 3 
4.30299 18.6697 15.784 3 
7.17489 18.6697 15.7842 3 
5.73917 17.2343 14.3489 3 
10.0456 18.6689 12.9144 3 
8.61066 17.2341 14.3492 3 
10.0458 18.6691 15.7849 3 
8.60983 20.1042 14.3496 3 
11.4803 20.1036 14.3499 3 
11.481 17.2333 14.3497 3 
12.9156 18.6681 12.9144 3 
15.7855 18.6675 12.9145 3 
12.9156 18.6681 15.7856 3 
15.7855 18.6674 15.7857 3 
14.3507 17.2326 14.3499 3 
14.3502 20.1028 14.3501 3 
18.6559 18.6673 12.9145 3 
17.2208 17.2322 14.3499 3 
20.0914 17.2323 14.3496 3 
18.6559 18.6674 15.7853 3 
17.2204 20.1023 14.35 3 
20.0913 20.1024 14.3498 3 
21.527 18.6676 12.9145 3 
24.3985 18.6679 12.9145 3 
22.9626 17.2326 14.3494 3 
22.9627 20.1027 14.3497 3 
21.5268 18.6677 15.7849 3 
24.3984 18.6682 15.7846 3 
28.7065 17.2336 14.3491 3 
25.8345 20.1031 14.3497 3 
27.2705 18.6684 12.9145 3 
27.2704 18.6687 15.7843 3 
25.8344 17.233 14.3493 3 
28.7065 20.1036 14.3496 3 
1.43058 21.5386 12.9145 3 
1.43071 24.4082 12.9145 3 
1.43065 21.5385 15.7849 3 
1.43089 24.4079 15.7846 3 
2.86661 22.9735 14.3496 3 
4.30251 21.5389 15.785 3 
7.17349 24.4088 12.9143 3 
4.30246 21.5389 12.9144 3 
7.17392 21.5391 12.9144 3 
5.73815 22.9738 14.3497 3 
7.17393 21.5391 15.7852 3 
4.30252 24.4084 15.7848 3 
7.17351 24.4088 15.7852 3 
4.30237 24.4086 12.9144 3 
10.044 24.4087 12.9144 3 
10.0447 21.5388 12.9144 3 
8.60906 22.9739 14.3499 3 
10.0447 21.5389 15.7856 3 
10.0439 24.4088 15.7856 3 
11.4793 22.9735 14.35 3 
12.9139 24.4081 12.9144 3 
15.7839 24.4073 12.9145 3 
15.7848 21.5374 12.9145 3 
12.9148 21.5381 12.9144 3 
12.9147 21.5381 15.7858 3 
15.7848 21.5373 15.7856 3 
12.9138 24.4081 15.7856 3 
15.7837 24.4071 15.785 3 
14.3492 22.9726 14.35 3 
18.6555 21.5371 12.9145 3 
18.6548 24.4069 12.9145 3 
20.0909 22.9719 14.3496 3 
18.6555 21.5371 15.7853 3 
18.6545 24.4065 15.7844 3 
17.2196 22.972 14.3498 3 
22.9627 22.9722 14.3496 3 
21.5269 21.5373 12.9145 3 
24.3986 21.5377 12.9146 3 
21.5266 24.407 12.9146 3 
24.3987 24.4074 12.9146 3 
21.5268 21.5372 15.7851 3 
24.3987 21.5376 15.785 3 
21.5264 24.4066 15.7842 3 
24.3987 24.407 15.7843 3 
28.7067 22.9731 14.3496 3 
27.2706 21.5381 12.9146 3 
27.2708 24.4078 12.9146 3 
25.8347 22.9726 14.3496 3 
27.2706 21.5381 15.785 3 
27.2709 24.4074 15.7844 3 
1.43072 27.2788 12.9144 3 
1.4311 27.2783 15.7838 3 
2.86669 25.8435 14.3493 3 
5.73798 25.8438 14.3495 3 
4.30227 27.2791 12.9143 3 
7.1733 27.2793 12.9143 3 
4.30262 27.2788 15.7842 3 
7.17342 27.2792 15.7848 3 
10.0438 27.2791 12.9143 3 
11.4788 25.8436 14.3499 3 
10.0438 27.2791 15.7852 3 
8.60864 25.844 14.3498 3 
12.9136 27.2788 12.9144 3 
15.7835 27.2782 12.9145 3 
12.9135 27.2788 15.7852 3 
15.783 27.2779 15.7843 3 
14.3485 25.843 14.3497 3 
18.6543 27.2777 12.9146 3 
17.2187 25.8422 14.3493 3 
18.6534 27.2769 15.7833 3 
20.0902 25.8419 14.3491 3 
21.5262 27.2777 12.9146 3 
24.3985 27.2781 12.9146 3 
22.9625 25.8422 14.3491 3 
21.5256 27.2768 15.783 3 
24.3984 27.2772 15.7833 3 
27.2708 27.2785 12.9145 3 
28.7069 25.8431 14.3493 3 
27.271 27.2778 15.7835 3 