ITEM: TIMESTEP
58041
ITEM: NUMBER OF ATOMS
18
ITEM: BOX BOUNDS pp pp pp
0.0000000000000000e+00 2.8712000000000000e+01
0.0000000000000000e+00 2.8712000000000000e+01
0.0000000000000000e+00 2.8712000000000000e+01
ITEM: ATOMS x y z c_cna 
25.6848 5.59607 0.395945 5 
27.2708 7.18215 1.39257 5 
0.144868 8.76831 0.396154 5 
27.2708 7.18206 24.4363 5 
1.53329 7.18675 27.2705 5 
24.4505 4.3618 27.2704 5 
24.2964 7.17747 27.2704 5 
28.6696 5.78335 25.8481 5 
28.6696 5.78337 28.6929 5 
27.2662 4.2078 27.2705 5 
25.6847 5.59601 25.4328 5 
28.02 7.93107 27.2706 5 
26.5217 6.43303 27.2704 5 
1.37911 10.0025 27.2705 5 
0.144919 8.76821 25.4328 5 
25.872 8.58081 25.848 5 
27.2754 10.1564 27.2704 5 
25.872 8.58087 28.6928 5 
ITEM: TIMESTEP
58042
ITEM: NUMBER OF ATOMS
18
ITEM: BOX BOUNDS pp pp pp
0.0000000000000000e+00 2.8712000000000000e+01
0.0000000000000000e+00 2.8712000000000000e+01
0.0000000000000000e+00 2.8712000000000000e+01
ITEM: ATOMS x y z c_cna 
25.6848 5.59607 0.395945 5 
27.2708 7.18215 1.39257 5 
0.144868 8.76831 0.396154 5 
27.2708 7.18206 24.4363 5 
1.53329 7.18675 27.2705 5 
24.4505 4.3618 27.2704 5 
24.2964 7.17747 27.2704 5 
28.6696 5.78335 25.8481 5 
28.6696 5.78337 28.6929 5 
27.2662 4.2078 27.2705 5 
25.6847 5.59601 25.4328 5 
28.02 7.93107 27.2706 5 
26.5217 6.43303 27.2704 5 
1.37911 10.0025 27.2705 5 
0.144919 8.76821 25.4328 5 
25.872 8.58081 25.848 5 
27.2754 10.1564 27.2704 5 
25.872 8.58087 28.6928 5 
