ITEM: TIMESTEP
58000
ITEM: NUMBER OF ATOMS
2001
ITEM: BOX BOUNDS pp pp pp
0.0000000000000000e+00 2.8712000000000000e+01
0.0000000000000000e+00 2.8712000000000000e+01
0.0000000000000000e+00 2.8712000000000000e+01
ITEM: ATOMS x y z 
1.48833 1.4016 1.51609 
3.13142 2.96095 2.85996 
0.0729834 2.94618 2.7813 
0.192801 2.86491 0.0178991 
2.7823 0.120757 2.86777 
3.13182 2.83153 0.0304049 
0.0850096 0.0533516 0.111823 
4.38018 1.4066 1.48495 
7.25771 1.31491 1.45686 
5.99232 2.79094 2.81682 
5.68228 0.0271235 2.92197 
5.82764 2.76828 0.0868382 
10.1347 1.31791 1.45357 
8.59525 2.66289 2.80917 
11.5876 2.8043 3.02833 
11.5093 0.0885041 2.88078 
11.7678 0.0586059 0.0507363 
8.5328 0.0402373 2.84953 
13.0147 1.50094 1.46533 
15.8311 1.4488 1.40559 
14.4955 2.88794 2.82793 
14.5012 0.115144 2.85097 
12.8947 4.0755 1.40401 
18.6809 1.69711 1.25507 
17.4199 3.13499 2.72557 
20.163 2.8654 2.72407 
20.3005 0.118936 2.85053 
17.2627 0.240575 2.85901 
21.6573 1.56239 1.31488 
23.1201 2.90033 2.81971 
24.4649 1.42927 1.3373 
22.9427 0.0501723 2.75493 
27.324 1.39081 1.41471 
25.8412 2.72862 2.7555 
28.7061 0.102814 2.78327 
25.8005 0.000843339 2.7416 
25.8828 3.05748 0.0139372 
1.46093 4.16228 1.51311 
1.52881 7.14101 1.49394 
2.92337 5.68937 2.81308 
0.0956787 5.76655 2.96881 
3.14306 5.79286 0.0514982 
4.50618 4.42196 1.40309 
7.27947 4.30524 1.54619 
4.47573 7.2263 1.5076 
7.30375 7.23818 1.43495 
5.94183 5.65215 2.95292 
5.8637 5.72255 0.00647781 
10.2505 4.22738 1.50279 
10.006 7.11953 1.64446 
8.60329 5.70299 3.08851 
11.6813 5.65141 2.87256 
11.4862 5.66351 0.0113156 
15.7276 4.31497 1.32093 
12.9612 7.13417 1.49737 
15.8456 7.08811 1.33415 
14.3827 5.61106 2.81233 
18.7071 4.53312 1.29977 
18.5808 7.23939 1.26935 
17.11 5.63972 2.82001 
20.1479 5.81367 2.86272 
24.4439 4.30482 1.57154 
21.5136 4.23044 1.31632 
21.442 7.25129 1.32057 
22.8869 5.72507 2.89223 
24.3074 7.20969 1.51925 
22.8696 5.84344 0.0291141 
27.429 4.32104 1.61664 
25.7252 5.63339 0.325531 
27.4178 7.1051 1.21035 
25.9348 5.73488 2.77152 
1.688 10.1533 1.6276 
2.98924 8.45771 2.70186 
2.93457 11.7041 2.99432 
2.96822 8.67027 0.0750025 
0.416024 8.71543 0.437331 
0.0253825 8.52718 3.09856 
0.102774 11.5065 0.0801968 
4.27439 10.1196 1.55502 
7.44966 10.1118 1.45738 
5.90683 8.67308 2.77518 
5.77945 11.3764 2.86855 
5.70214 8.70081 0.0339082 
5.75676 11.4386 0.151644 
10.3521 10.1409 1.48373 
8.8377 8.5736 2.87279 
11.5622 8.44125 2.78219 
8.68113 11.528 2.9547 
11.7241 11.5942 2.94411 
8.80744 8.79653 0.0812389 
11.6532 11.5615 0.154524 
11.6657 8.72861 0.106252 
12.9823 10.0718 1.54775 
15.8043 9.85114 1.32479 
14.4038 8.4757 3.01653 
14.3129 11.3291 2.88305 
18.729 9.85372 1.47693 
17.205 8.56763 2.8475 
20.0819 8.39119 2.72878 
17.0698 11.3998 2.8568 
20.0118 11.2502 2.9913 
20.0713 11.4608 0.194433 
21.5607 9.98761 1.27545 
23.0557 8.65011 2.70436 
22.815 11.3648 2.80027 
22.9872 8.53684 0.175918 
24.6911 10.0811 1.36892 
28.6509 11.588 2.86458 
27.2545 9.98997 1.44581 
25.9704 8.72538 2.92359 
25.6709 11.443 2.99037 
26.0698 11.3997 0.0935056 
1.40592 13.0044 1.46192 
1.24805 15.9474 1.38721 
2.85898 14.5616 3.00077 
2.9307 14.4908 0.072513 
5.79806 14.1245 0.0986266 
4.26962 15.8444 1.59182 
4.20704 13.0821 1.58311 
7.17962 12.8134 1.30698 
7.13563 15.812 1.42375 
5.73702 14.2813 2.70933 
10.1113 12.9992 1.51989 
9.88465 15.7901 1.44012 
8.52247 14.5371 2.86663 
11.5935 14.5125 2.94959 
8.69084 14.3645 0.114048 
11.5235 14.5319 0.0998386 
13.1625 12.9079 1.58076 
15.9051 12.9212 1.49547 
13.3262 15.8356 1.3587 
15.8584 15.7104 1.47278 
14.5595 14.3399 2.94978 
18.8234 13.004 1.42773 
18.809 15.6392 1.38012 
17.3621 14.3802 2.95851 
20.0795 14.4234 2.77567 
17.2542 14.4007 0.0755916 
21.2956 12.8862 1.49731 
21.5427 15.8992 1.3898 
23.0776 14.392 2.76555 
24.3129 12.8634 1.42969 
24.3567 15.949 1.10716 
28.6537 14.4257 2.81577 
27.2662 12.8699 1.56946 
27.1626 15.9004 1.3694 
25.6744 14.3952 2.90263 
28.6239 14.3688 0.15673 
1.48437 18.7838 1.2924 
2.59531 17.18 2.72878 
2.82225 20.1666 2.88366 
4.26918 18.6439 1.66504 
7.2423 18.7764 1.50829 
5.75294 17.0899 2.90505 
5.71534 20.1047 2.85079 
5.57177 17.2373 0.013406 
8.51757 17.3883 0.0917907 
10.0016 18.5315 1.374 
8.57025 17.2025 2.90155 
11.4744 17.0899 2.97817 
8.74805 20.1052 2.91989 
11.6099 20.1729 2.87292 
11.5338 20.0467 0.31964 
8.57413 20.2237 0.0046654 
11.5879 17.1585 0.0282215 
12.9918 18.6886 1.45029 
15.781 18.5398 1.45061 
14.2169 17.2607 3.00377 
14.5211 20.0862 2.94297 
14.541 19.9997 0.0601189 
18.702 18.7367 1.50919 
17.2903 17.2705 2.87338 
20.1117 17.182 2.97349 
17.278 20.1589 2.83544 
20.0758 20.151 2.92151 
20.1135 20.2216 0.116852 
21.3929 18.701 1.40826 
24.4057 18.7746 1.30589 
23.1115 17.3601 2.95392 
22.8497 19.9935 2.80707 
28.6519 20.1881 2.74143 
28.6835 17.42 2.88895 
27.3162 18.6614 1.17546 
25.9546 17.2484 2.93649 
25.8706 20.1503 2.7389 
1.36989 21.5861 1.21008 
2.77567 23.0783 2.94455 
1.50675 24.3022 1.16661 
0.0807626 22.9873 2.7749 
4.46587 24.3588 1.42185 
4.51929 21.501 1.32911 
7.11266 21.4129 1.58299 
5.85156 22.8872 2.94315 
7.18402 24.3994 1.55386 
10.03 21.6376 1.49387 
8.57221 22.9201 2.95311 
11.745 23.0398 2.97893 
10.0136 24.4426 1.3779 
11.4801 22.8869 0.161381 
8.75771 23.0378 0.00106361 
13.3406 21.3157 1.53204 
15.9017 21.6455 1.50803 
14.4842 22.9255 2.93908 
15.7873 24.5382 1.39649 
13.0859 24.3692 1.44538 
18.7669 21.6406 1.42846 
17.3617 23.168 2.71843 
20.0979 23.0235 3.01083 
18.6399 24.5999 1.25947 
20.0831 23.071 0.0282133 
21.4743 21.557 1.43317 
24.4337 21.6276 1.45079 
22.7589 23.021 2.80781 
24.3406 24.1499 1.34274 
21.374 24.4304 1.38685 
27.209 21.7806 1.35775 
25.7099 23.0125 2.86064 
27.2983 24.3848 1.3395 
1.58646 27.1925 1.32989 
2.85044 26.0082 2.84867 
0.247486 25.9558 2.81429 
2.74615 28.6825 0.0640656 
5.90906 25.8717 0.0781027 
4.48621 27.3589 1.3604 
7.19715 27.2441 1.38932 
5.78859 25.8474 2.75658 
10.1691 27.2329 1.39262 
8.58624 25.8415 2.88803 
11.5811 25.8116 2.78194 
11.6654 25.8426 0.281606 
8.62969 25.8436 0.181228 
13.2079 27.4975 1.39749 
15.9947 27.4417 1.334 
14.4513 25.9173 2.79687 
18.7114 27.6139 1.44011 
17.2657 25.9064 2.73379 
20.1898 25.9436 2.86912 
21.7081 27.4466 1.415 
22.9468 25.6763 2.67191 
24.2527 27.4365 1.29144 
24.3921 27.2947 4.0936 
27.3509 27.2325 1.42385 
25.8533 25.8051 2.77922 
1.49531 1.63603 4.37057 
1.4433 1.35572 7.30037 
2.9271 2.87388 5.71865 
0.0830102 2.95725 5.79144 
4.41053 1.60607 4.38128 
7.14751 1.34338 4.35899 
4.28958 1.46265 7.08783 
7.23546 1.40009 7.01398 
5.70107 2.90801 5.93101 
10.0129 1.53348 4.3506 
10.1898 1.5059 7.11998 
8.69447 2.97372 5.84228 
11.6074 3.00487 5.75226 
11.4561 0.00566185 5.7232 
8.68306 0.108269 5.67088 
12.8813 1.29731 4.3999 
15.8312 1.42823 4.33427 
12.748 1.40843 7.14458 
15.7795 1.22444 7.10695 
14.2349 2.91726 5.79832 
18.7023 1.49724 4.21014 
18.606 1.49497 7.00467 
17.2613 2.89015 5.79652 
20.1624 2.891 5.64977 
17.181 0.0660856 5.641 
18.8306 4.08685 7.15657 
20.0944 0.0572046 5.7461 
21.4731 1.48896 4.28894 
24.4415 1.39489 4.25122 
21.6434 1.52077 7.17295 
24.4269 1.47498 7.23498 
23.1127 2.93704 5.54782 
22.9191 0.166937 5.83138 
27.4569 1.60782 4.36537 
28.6652 0.0696402 5.82487 
27.0711 1.47721 7.11874 
25.8117 2.75896 5.73366 
1.45053 4.46315 4.42676 
1.43228 7.08071 4.34765 
1.40022 4.3138 7.26752 
1.31042 7.26144 7.12964 
3.05729 5.77079 5.89199 
4.36223 7.16902 4.27387 
7.26178 4.3164 4.25515 
4.3673 4.42458 4.17668 
7.27988 7.36024 4.47661 
7.20405 4.32712 7.1763 
4.26706 7.2204 7.13608 
4.47076 4.38331 7.27236 
5.76994 5.7747 5.5501 
6.98496 7.35049 7.17772 
10.1698 4.27516 4.22216 
10.1785 7.15473 4.36345 
10.0018 4.30749 7.06772 
8.61725 5.8579 5.86392 
9.93911 7.19612 7.24932 
11.4383 5.77687 5.72087 
12.9201 4.33998 4.25909 
15.6729 4.31956 4.3223 
13.0425 7.04482 4.34069 
15.9202 7.003 4.13138 
13.0696 4.296 7.36633 
15.8699 4.37531 7.18246 
12.8527 7.22613 7.20822 
14.5111 5.76395 5.93216 
15.9008 7.14978 7.01881 
18.8003 4.32233 4.14108 
18.6578 6.96395 4.27684 
17.2755 5.61678 5.58258 
18.6979 7.11349 7.13469 
19.9853 5.73347 5.7524 
21.4726 4.28988 4.30217 
21.6446 7.08008 4.28477 
24.4757 7.22208 4.18297 
21.5099 4.44211 7.04345 
24.1948 4.22518 7.0738 
21.3647 7.04203 7.1351 
23.1108 5.80664 5.67464 
24.5141 7.15096 7.0161 
24.6891 4.21642 4.24466 
27.2059 4.39986 4.34978 
27.2344 7.26727 4.3893 
28.6739 5.77019 5.69587 
27.1462 4.24665 7.20084 
25.7244 5.6041 5.73758 
27.1484 7.1481 7.15457 
1.63763 10.239 4.25529 
1.40171 9.9177 7.21034 
2.80459 8.61557 5.70772 
2.65889 11.6863 5.73045 
4.15054 9.94941 4.22333 
7.24684 10.0813 4.32657 
4.32233 9.96932 7.18547 
5.6728 8.7217 5.73485 
7.16153 10.1547 7.28187 
5.57167 11.4061 5.81917 
10.1408 10.155 4.24603 
8.89037 8.70291 5.81459 
9.96954 10.1786 7.40533 
11.476 8.66015 5.8318 
8.45506 11.4437 5.85769 
11.3332 11.5493 5.77624 
12.7376 10.0089 4.19268 
15.7678 9.86606 4.19711 
12.8715 10.0844 7.1992 
14.4449 8.5359 5.76619 
15.7228 10.0438 7.15275 
14.2733 11.3501 5.45826 
18.6877 9.90988 4.36283 
17.3848 8.54673 5.84365 
18.5858 10.1023 6.98987 
20.2614 8.52577 5.69412 
17.2223 11.4163 5.72897 
20.1634 11.3668 5.75556 
21.4073 9.79889 4.14519 
24.3102 10.0297 4.26772 
21.6371 9.99349 7.14159 
23.0035 8.6171 5.70749 
22.7501 11.4829 5.83015 
24.5472 10.033 7.09799 
27.1703 10.108 4.33491 
28.6728 8.63286 5.79001 
28.5827 11.8099 5.81877 
25.9256 8.71836 5.63412 
27.3849 10.1275 7.17544 
25.8144 11.7171 5.74161 
1.21756 13.0125 4.2062 
1.27919 15.8778 4.47087 
1.25061 12.8734 7.30673 
1.36437 15.8547 7.16272 
2.6856 14.4209 5.8196 
4.2343 13.0521 4.15312 
4.11611 15.8464 4.43037 
6.96414 12.8298 4.44268 
7.16026 15.7948 4.32573 
4.18737 12.9532 7.13829 
4.24148 15.7725 7.084 
7.06731 12.9592 7.17009 
5.72161 14.3304 5.76381 
7.11238 15.639 7.19541 
10.0548 12.826 4.47002 
9.99893 15.7784 4.32962 
9.74562 12.8076 7.13027 
8.73011 14.4853 5.84657 
10.1306 15.7398 7.31701 
11.4888 14.1811 5.75149 
13.1179 12.987 4.2781 
15.7547 12.9034 4.15654 
13.0097 15.8175 4.33848 
15.835 15.8921 4.4086 
12.845 12.9455 7.12011 
15.7791 12.6079 7.16712 
12.7868 15.8521 7.14063 
14.2658 14.4399 5.83037 
15.6919 15.9536 7.18304 
18.6678 12.7486 4.32129 
18.5181 15.9542 4.39823 
18.6292 12.8628 7.11892 
17.1665 14.3415 5.64182 
18.5707 15.8139 7.17138 
19.9459 14.3587 5.32585 
21.5417 12.9179 4.30482 
21.45 15.8529 4.19075 
24.2383 12.921 4.35327 
24.3685 15.8379 4.31738 
21.2945 13.0343 6.93339 
21.6279 15.8174 6.98237 
22.9158 14.3249 5.63105 
24.3195 13.1106 7.20351 
24.4001 16.0901 7.14486 
27.2872 13.1762 4.22554 
27.3652 15.9749 4.29046 
28.5483 14.3265 5.93644 
27.0601 13.0725 7.28234 
25.6654 14.4664 5.88558 
27.247 16.0039 7.17802 
1.44004 18.6686 4.36463 
1.48567 18.7086 7.37079 
2.87488 17.3045 5.89528 
2.92796 19.958 5.91936 
4.3 18.6395 4.41944 
7.27529 18.8095 4.35722 
4.45408 18.5564 7.36256 
5.70998 17.1495 5.72604 
7.18299 18.5075 7.2922 
5.73993 20.0401 5.73287 
9.92468 18.6272 4.25836 
8.52489 17.0823 5.86905 
9.97016 18.6363 7.2022 
11.5122 17.1055 5.70738 
8.54807 20.0724 5.77418 
11.4694 20.0546 5.81848 
12.9592 18.7335 4.41686 
15.937 18.7103 4.23087 
12.7487 18.5876 7.25057 
14.2218 17.3111 5.73581 
15.7012 18.8784 7.13187 
14.3994 20.0447 5.83421 
18.6279 18.8237 4.30233 
17.1099 17.2467 5.78144 
18.7414 18.7276 7.14495 
20.0628 17.2399 5.73062 
17.2409 20.0104 5.6982 
19.9785 20.0233 5.59582 
21.4743 18.728 4.38749 
21.5107 18.6063 7.25657 
22.9379 17.3723 5.6823 
22.8242 20.0597 5.64765 
24.5096 18.7366 6.96225 
24.6817 18.7887 4.37545 
27.3472 18.9038 4.37527 
28.6186 20.2639 5.73393 
28.6753 17.4462 5.7956 
26.026 17.3375 5.85727 
27.3593 18.9198 7.43195 
25.7392 20.38 5.72344 
1.57244 21.4408 4.39971 
1.33909 24.5373 4.30889 
1.48085 21.4813 7.17569 
2.95755 22.8691 5.65757 
1.66554 24.4244 6.97814 
0.0240675 23.0617 5.57517 
4.08272 21.5291 7.16347 
4.32374 24.1817 4.268 
4.36688 21.5527 4.28565 
7.16952 21.3236 4.54021 
6.92037 24.2817 4.50077 
7.19457 21.3882 7.2394 
5.75895 22.7142 5.88477 
7.17285 24.2763 6.97129 
4.25775 24.2559 7.24078 
10.0483 21.4997 4.27135 
10.2424 24.4857 4.20885 
10.1435 21.2698 7.12195 
8.78767 22.8989 5.63686 
11.6698 22.9061 5.79476 
10.1373 24.3021 7.23598 
13.1056 21.6038 4.45208 
15.8172 21.5154 4.49363 
13.1469 24.5147 4.33907 
16.0062 24.3124 4.38163 
13.027 21.4561 7.30502 
15.8033 21.6757 7.3125 
14.6919 22.9371 5.91258 
15.9814 24.4922 7.1227 
12.9572 24.1931 7.34522 
18.5904 21.5695 4.26682 
18.7089 24.3651 4.15333 
18.6891 21.5321 7.1034 
17.2924 22.8653 5.81417 
19.9243 23.0062 5.72665 
18.7525 24.5886 7.24654 
21.5032 21.6236 4.42218 
24.1903 21.6375 4.13623 
21.5711 24.3942 4.25285 
24.3063 24.329 4.19106 
21.5066 21.3609 6.95366 
22.8639 22.8795 5.77578 
24.2762 24.4677 7.12508 
24.3998 21.4805 7.15194 
21.517 24.4527 6.86701 
27.397 21.7446 4.20805 
27.3386 24.4768 4.30148 
27.2228 21.6515 7.04542 
25.8076 23.0033 5.52101 
27.4454 24.3708 7.10142 
1.30628 27.376 4.32 
2.78002 28.5842 5.82938 
1.42485 27.2843 7.26959 
2.88955 25.8853 5.44521 
0.125822 26.0043 5.72586 
4.26422 27.4327 4.25507 
7.25608 27.2237 4.39156 
5.72947 28.6818 5.66113 
4.30092 27.209 7.20867 
5.65799 25.8049 5.74509 
7.11104 27.3199 7.11539 
9.91366 27.1582 4.21467 
8.70168 25.8591 5.69405 
10.1806 27.1718 7.16567 
11.6509 25.7516 5.84107 
13.0033 27.3507 4.22129 
15.8085 27.3753 4.32091 
14.1998 28.6394 5.77369 
12.9609 27.1783 7.3244 
14.3226 25.821 5.71701 
15.9265 27.2644 7.11898 
18.6239 27.452 4.17302 
17.4154 25.8879 5.76252 
18.6339 27.4772 7.02267 
19.9556 25.8322 5.67357 
21.5466 27.3825 4.31084 
21.5274 27.2639 7.20331 
23.068 25.8984 5.4756 
24.232 27.377 6.95596 
27.2982 27.2682 4.17224 
25.7916 28.5958 5.71537 
25.8904 25.9885 5.75087 
27.1317 27.3158 7.23932 
2.98031 2.90245 8.5418 
0.00150999 2.71832 8.62869 
2.79345 0.0161166 8.75203 
1.56629 1.34935 9.99607 
2.86124 2.80589 11.3673 
0.00387591 2.66736 11.402 
5.71166 2.79448 8.70237 
4.26363 1.26215 10.0211 
7.12526 1.24179 9.99255 
5.67072 2.81774 11.4309 
8.48887 2.75754 8.61668 
11.5774 2.93334 8.52785 
11.2747 0.0539903 8.60212 
8.58472 0.0446505 8.50184 
9.96727 1.35302 10.144 
8.8173 2.94837 11.4682 
11.5978 2.88153 11.4238 
9.99074 4.0967 9.85792 
14.5148 2.91608 8.67625 
14.3302 0.0789832 8.5999 
12.8847 1.49159 10.0946 
15.8556 1.4605 10.0384 
14.4928 3.04625 11.5927 
14.3423 0.0233676 11.3504 
17.3151 2.81563 8.45372 
20.1177 2.73468 8.60193 
17.1795 0.0485723 8.63096 
19.9978 0.168245 8.67168 
18.5553 1.44368 10.0226 
17.1191 2.80492 11.6561 
20.0245 2.84886 11.4233 
22.9036 2.88053 8.81697 
21.3854 1.39752 10.1106 
22.8724 2.9356 11.597 
24.4302 1.40671 10.1483 
25.6939 2.97146 8.67302 
28.5262 0.0204608 11.6872 
27.2189 1.39046 10.0399 
25.7525 2.77938 11.6613 
2.93561 5.70984 8.52391 
0.119681 5.60478 8.57547 
1.49554 4.34395 10.021 
1.51196 7.20895 9.95183 
2.65134 5.68431 11.5461 
0.0508332 5.88285 11.3386 
5.90551 5.83989 8.63509 
4.379 7.25391 10.1427 
7.14443 4.37728 9.98664 
4.35391 4.37727 10.0987 
7.03585 7.27175 10.1993 
5.60556 5.58888 11.6272 
8.66115 5.6384 8.64756 
11.3962 5.78695 8.46821 
9.79197 7.1691 10.0459 
8.52544 5.63409 11.3712 
11.3016 5.70131 11.2032 
14.4402 5.73599 8.61407 
13.0767 4.20362 10.0258 
15.9041 4.3928 9.88811 
12.7773 7.13592 9.9577 
15.8967 7.12725 9.8898 
14.1075 5.7783 11.5257 
17.2973 5.67324 8.50941 
20.1181 5.72023 8.59001 
18.5643 4.15183 10.0304 
18.7407 7.08946 9.95365 
17.1032 5.69138 11.4524 
20.2553 5.78565 11.3748 
23.0454 5.85593 8.52278 
21.421 4.32438 9.93147 
21.5049 7.21161 9.95031 
22.9312 5.8395 11.5471 
24.5203 7.22767 9.94028 
24.3114 4.66073 10.0839 
25.9331 5.74603 8.55397 
27.2283 4.41767 10.0631 
27.1861 7.2535 10.1419 
25.7129 5.75753 11.5171 
2.90836 8.57495 8.66058 
2.83106 11.3662 8.68981 
0.0289782 8.59497 8.58917 
1.32122 10.1373 10.1234 
2.75639 8.54777 11.3716 
2.81988 11.5692 11.6852 
0.0323834 11.5393 11.6334 
0.0407875 8.63197 11.4817 
5.64256 8.70195 8.69785 
5.66479 11.4748 8.61494 
4.39511 10.0109 10.0097 
7.28362 10.0295 10.0409 
5.75171 8.52182 11.605 
5.87253 11.3426 11.5008 
8.62263 8.61739 8.56227 
11.3514 8.60825 8.65463 
8.38122 11.5228 8.58188 
11.4232 11.5213 8.52415 
11.4238 8.55553 11.4976 
10.0522 10.1067 10.1731 
8.6098 8.63122 11.5001 
8.63032 11.6054 11.6509 
11.626 11.48 11.4919 
14.3806 8.42614 8.71312 
14.2898 11.563 8.45915 
12.9089 9.94754 9.93868 
15.6609 10.2289 9.68018 
14.1262 8.6196 11.3413 
14.262 11.3095 11.3393 
17.3266 8.64668 8.45446 
20.2031 8.56124 8.4306 
17.223 11.4922 8.60405 
20.1726 11.4681 8.4237 
18.7148 10.0215 9.84289 
17.183 8.74187 11.2565 
20.0769 8.55059 11.2735 
17.1119 11.3357 11.3807 
20.1474 11.1785 11.4286 
22.9786 8.44584 8.44758 
23.0499 11.5007 8.34734 
21.7426 9.88311 10.0341 
22.9491 8.47187 11.5052 
22.92 11.3127 11.4718 
24.4438 10.0411 10.117 
28.628 11.428 8.52378 
25.9625 8.80075 8.69073 
25.7822 11.4757 8.63653 
27.3622 10.1995 10.1885 
25.8758 8.63951 11.5182 
25.802 11.479 11.5593 
2.87302 14.4615 8.66037 
1.41419 12.9521 10.1066 
1.51456 15.8471 10.3002 
2.96615 14.3788 11.6904 
0.0143899 14.2965 11.5339 
5.71612 14.5107 8.65845 
4.33189 12.9096 10.0168 
4.38036 15.694 10.2167 
7.20618 12.8862 9.99234 
7.43871 15.8296 10.1502 
5.8932 14.4972 11.4603 
8.59391 14.3815 8.64956 
11.4346 14.3203 8.5797 
10.013 12.9816 10.1552 
9.9967 15.847 10.0596 
8.68043 14.4669 11.5977 
11.6018 14.4347 11.3429 
14.4132 14.0422 8.45038 
12.888 12.6343 10.0286 
15.9349 12.8644 10.0441 
13.07 15.5698 9.90111 
15.7848 15.7541 9.95684 
14.4997 14.303 11.4017 
17.2145 14.4422 8.54087 
20.0593 14.5356 8.51647 
18.5469 12.8869 9.98917 
18.6504 15.6938 10.2246 
17.0507 14.2827 11.4818 
20.0661 14.1454 11.3118 
22.9416 14.4786 8.56721 
21.4571 12.7807 10.0019 
21.4035 15.7543 10.1243 
22.9814 14.1402 11.4304 
24.3323 15.772 10.0927 
24.3874 12.9371 9.9097 
28.6972 14.6571 8.68741 
25.6774 14.6209 8.59946 
27.3965 13.1211 10.2016 
27.2139 15.8476 9.86537 
25.8245 14.3958 11.5589 
2.90364 17.1819 8.93003 
3.07535 20.0803 8.66512 
0.146908 20.138 8.69468 
0.128366 17.3685 8.71659 
1.44742 18.6024 9.97243 
2.84768 17.271 11.643 
2.78323 19.9979 11.405 
5.76017 17.0098 8.8851 
5.79963 20.1315 8.76607 
4.38676 18.5475 10.1522 
7.19711 18.3912 10.2092 
5.63015 17.159 11.5619 
5.76734 20.0028 11.614 
8.70163 17.0624 8.62157 
11.5735 17.1893 8.76591 
8.58675 20.0217 8.68465 
11.5629 20.1781 8.69702 
10.1615 18.5413 9.93872 
8.66939 17.4204 11.596 
11.5756 17.2632 11.4246 
8.63281 19.9784 11.669 
11.6837 20.1001 11.532 
14.3808 17.1731 8.80171 
14.335 20.2024 8.88899 
13.0604 18.5729 10.0995 
16.0097 18.7597 10.0703 
14.6521 17.2816 11.6081 
14.2681 20.0432 11.48 
17.0455 17.2571 8.69144 
20.0965 17.2086 8.58847 
17.1251 20.1952 8.74087 
20.0308 20.0377 8.50007 
18.6389 18.6023 10.0205 
17.2687 17.1968 11.4326 
20.0196 17.1096 11.3732 
17.1933 20.1242 11.511 
20.0708 20.1105 11.5861 
22.8975 17.3756 8.99292 
23.0484 20.0856 8.52285 
21.3861 18.7082 10.1587 
22.8415 17.2178 11.7242 
23.1705 20.2647 11.5833 
24.3109 18.8224 10.0127 
25.7073 17.2575 8.57433 
25.8322 20.2242 8.79812 
28.5607 20.1111 11.4408 
28.685 17.1778 11.3857 
27.3996 18.7377 9.88952 
25.7396 17.4532 11.4163 
25.7905 20.1436 11.5439 
2.80547 22.8144 8.76644 
0.052082 22.8776 8.50811 
1.41625 24.3124 10.0742 
1.44048 21.5199 10.1185 
2.91042 23.0385 11.7298 
5.67428 22.9896 8.60626 
7.15718 24.3351 10.0639 
4.36945 21.5304 10.1736 
4.20056 24.364 10.018 
7.12986 21.4469 10.1478 
5.76329 22.9589 11.5204 
8.62341 22.7127 8.61422 
11.5599 22.8638 8.62392 
9.94452 24.2111 9.86001 
9.99044 21.2722 10.0231 
8.63578 22.846 11.5276 
11.4143 22.8544 11.4847 
14.4912 22.9907 8.68288 
15.716 24.2847 10.1353 
12.9282 24.3559 10.0497 
14.2763 23.0169 11.6282 
12.9417 21.62 10.1692 
15.7119 21.6565 10.1858 
17.3894 22.9382 8.46624 
20.0856 23.085 8.38298 
20.0721 23.1586 11.4094 
17.2459 23.0691 11.4909 
18.5838 24.4013 9.89798 
18.6913 21.4596 10.1112 
22.574 22.9211 8.3596 
24.4611 21.7301 9.96293 
22.8723 22.8885 11.5602 
24.2152 24.3801 9.98572 
21.4842 24.4593 9.77265 
21.5009 21.6921 10.0307 
25.9262 22.9216 8.48679 
27.1515 24.5675 9.8128 
25.9567 23.0554 11.3589 
27.219 21.5881 10.1264 
28.6252 23.0182 11.4311 
2.9563 25.7188 8.56159 
0.0910529 25.7819 8.58311 
2.9228 28.5779 11.4762 
1.46304 27.2216 10.1479 
2.86534 25.7687 11.5594 
0.0380422 25.7293 11.3241 
5.77788 28.6257 8.51246 
5.93268 25.723 8.47674 
7.28217 27.3576 10.092 
5.71858 25.8398 11.4083 
4.2719 27.0334 9.86967 
5.85558 28.5826 11.4207 
8.43473 25.7475 8.52093 
11.6575 25.7575 8.49204 
9.917 27.2207 9.88023 
8.61631 25.6539 11.3079 
11.3048 25.6921 11.3806 
8.58288 28.6579 11.2294 
11.4862 28.6974 11.3701 
14.5104 25.7115 8.53166 
13.0736 27.2963 9.85693 
15.8015 27.2114 10.2408 
14.153 25.7331 11.4711 
17.1114 26.0889 8.70224 
19.9266 25.9655 8.69365 
20.1245 25.8996 11.3817 
18.5065 27.3077 10.2012 
17.1828 25.6744 11.5102 
17.2927 28.6391 11.5445 
20.0685 28.6215 11.5114 
23.0185 28.6834 8.52453 
23.0408 25.794 8.5855 
24.4487 27.2336 10.0864 
22.9742 28.6698 11.487 
22.9897 25.8245 11.4313 
21.5484 27.4639 9.98299 
28.3906 28.6893 8.64814 
25.7325 28.5712 8.54474 
25.678 25.8341 8.35712 
25.7726 25.8532 11.4276 
27.1599 27.2725 10.1834 
25.8232 28.5672 11.5914 
1.50939 1.30576 12.7629 
0.00796175 0.0770779 14.285 
1.50053 1.51919 15.7482 
2.87047 2.77966 14.4443 
4.23791 1.29638 12.9784 
7.20549 1.58431 12.7992 
5.63484 3.07275 14.2597 
5.75707 0.0893761 14.1459 
4.52438 1.32607 15.7988 
7.19373 1.64501 15.5789 
9.92804 1.56381 12.8994 
11.5238 2.76659 14.3185 
8.53251 0.142173 14.195 
10.146 1.34753 15.7266 
8.66414 3.03247 14.3821 
12.8435 1.43312 12.6429 
15.8439 1.43407 13.0292 
14.2721 2.76468 14.2923 
12.8873 1.47507 15.6745 
15.6193 1.5872 15.6761 
18.519 1.3696 13.1282 
18.5852 1.38397 15.7749 
19.9043 2.90231 14.4771 
17.2661 2.91508 14.407 
21.4241 1.43084 12.8877 
24.224 1.45663 12.8374 
21.377 1.51616 15.7843 
24.4136 1.39414 15.746 
22.9817 2.89182 14.407 
27.1778 1.41515 13.0101 
25.6698 0.0667037 14.2395 
27.187 1.55969 15.7944 
25.8809 2.92133 14.4438 
28.5855 3.01356 14.5006 
1.3225 4.10837 12.8141 
1.34776 7.14694 13.0331 
3.94276 4.32677 13.065 
4.00089 7.09928 12.9078 
1.58514 4.25774 15.8785 
1.24301 7.16654 15.8271 
4.0952 7.35267 15.6514 
2.6786 5.87441 14.387 
7.23439 4.18296 12.7972 
7.22462 7.20851 12.8203 
5.68276 5.75477 14.1659 
4.24293 4.3161 15.8447 
7.1825 4.2902 15.7677 
7.10431 6.9611 15.7491 
10.0621 4.33397 12.8171 
10.0553 7.19063 13.0171 
11.5463 5.6988 14.1933 
10.1489 4.10819 15.784 
10.1022 6.91514 15.9666 
8.57304 5.79991 14.3833 
12.995 4.25582 12.9752 
15.7622 4.33848 12.9625 
12.8049 7.29221 12.9176 
15.6425 7.1396 12.8225 
12.7485 4.22298 15.6943 
15.7964 4.21783 15.6568 
12.8278 7.09516 15.8275 
15.7288 7.23002 15.5519 
14.2782 5.86644 14.459 
18.686 4.36354 12.8984 
18.5294 7.0379 13.0253 
18.7572 4.36202 15.8201 
18.486 7.3722 15.82 
20.1423 5.747 14.4867 
17.1005 5.73165 14.3787 
24.3231 4.46335 12.9623 
21.4223 4.24087 13.0206 
21.4081 7.22941 12.9563 
24.243 7.22937 13.1564 
21.4443 4.25269 15.951 
24.2761 4.25633 15.6743 
21.3371 7.27474 15.7837 
24.274 7.11057 15.8114 
22.7657 5.81171 14.6132 
28.5959 5.73787 14.2518 
27.2991 4.43987 12.791 
27.2962 7.14978 12.8004 
25.6962 5.85292 14.1917 
27.1835 4.45261 15.8866 
27.0933 7.15076 15.7837 
1.42429 10.0457 13.0504 
2.92462 11.5516 14.3388 
1.34862 10.0401 15.8594 
2.65588 8.56421 14.5389 
4.27381 10.0258 13.035 
7.18419 10.0305 12.9527 
5.64812 8.5185 14.2995 
4.18251 10.0179 15.9006 
7.16176 9.92632 15.6821 
5.7623 11.4806 14.4498 
9.94789 10.0339 12.9303 
10.1651 10.0377 15.9321 
8.52721 8.53881 14.4373 
8.70543 11.4199 14.4363 
11.442 8.72176 14.4526 
11.4408 11.5779 14.5751 
12.9626 10.1814 12.8967 
15.6421 10.0335 12.783 
14.2378 8.5631 14.2456 
14.1693 11.5594 14.2882 
12.9972 9.89971 15.7914 
15.764 9.9056 15.6175 
18.7634 9.82076 12.809 
20.059 8.64281 14.3148 
17.0035 11.5533 14.3289 
17.1076 8.74156 14.1539 
18.368 10.0575 15.7187 
20.0478 11.3455 14.3969 
22.8161 11.4011 14.2949 
21.525 9.95554 12.8669 
24.4054 10.0113 12.9198 
22.8485 8.69983 14.3142 
21.5349 9.8026 15.8287 
24.348 10.1366 15.834 
27.1466 10.0652 12.9488 
25.8012 11.7207 14.2847 
28.4332 8.37166 14.4198 
27.1074 10.0741 15.605 
28.6742 11.5064 14.3798 
25.6961 8.6814 14.3836 
1.37628 12.9703 13.0293 
1.44786 15.7075 12.9821 
1.45871 12.9552 15.8427 
1.60688 15.8806 15.8132 
2.99838 14.2793 14.3796 
0.0195022 14.3671 14.5588 
4.47806 15.806 13.0357 
4.48897 12.8938 13.0105 
7.08898 12.9599 12.9553 
7.30468 16.0264 13.0768 
5.8595 14.5657 14.3343 
4.36349 15.7261 15.9059 
4.40511 12.9003 15.875 
7.30922 13.0356 15.6282 
7.16648 16.0136 15.8544 
10.0845 13.0619 12.9944 
10.1323 15.9712 12.8605 
8.6641 14.5945 14.3536 
11.4784 14.3528 14.4304 
10.1517 12.9457 15.9096 
10.1006 15.8173 15.9726 
12.9072 13.1474 12.9273 
15.6209 12.8792 12.8708 
13.0827 15.7724 12.9548 
15.8946 15.8497 13.0711 
14.4994 14.4027 14.231 
12.9948 13.0443 15.6499 
15.619 12.7696 15.8358 
12.8955 15.7352 15.8265 
15.7924 15.8666 15.6709 
18.3231 12.809 12.7012 
18.8717 15.7948 13.0101 
17.3584 14.2369 14.2083 
20.2363 14.0164 14.2795 
18.6512 12.9725 15.8441 
18.5169 15.7016 15.631 
21.2606 12.7308 12.8024 
21.5015 15.5235 13.0111 
24.1979 12.823 12.8944 
24.4039 15.8265 12.9312 
21.5171 12.7278 15.8708 
21.5601 15.6644 15.7542 
24.4984 15.8535 16.0662 
24.3739 12.8179 15.7244 
22.9139 14.3174 14.3933 
27.3722 12.9748 12.9194 
27.2657 15.8267 12.8504 
25.8285 14.6385 14.3122 
27.1109 13.0308 15.8114 
27.1244 15.709 15.9487 
1.27823 18.8389 12.9823 
1.20414 18.5552 15.8069 
2.60951 20.1548 14.4433 
2.76507 17.2645 14.3797 
5.8018 20.1158 14.2364 
4.18446 18.6642 12.9489 
7.15093 18.6171 12.9648 
4.23484 18.5169 15.8031 
7.17941 18.7331 15.7773 
5.69332 17.2439 14.438 
10.249 18.618 12.9336 
8.60635 17.3938 14.3279 
10.1395 18.6106 15.8224 
8.56452 20.1155 14.5333 
11.4807 19.9735 14.4549 
11.4985 17.0138 14.3808 
12.9438 18.6915 12.9563 
15.8089 18.831 13.2645 
12.7888 18.7894 15.779 
15.9043 18.7989 15.639 
14.2649 17.4165 14.4619 
14.1436 20.2026 14.4779 
18.7317 18.7519 12.9038 
17.2256 17.3433 14.2734 
19.9795 17.1407 14.445 
18.6493 18.7995 15.8932 
17.3799 20.3332 14.4073 
20.008 20.1573 14.3847 
21.4014 18.5749 12.996 
24.4488 18.7008 12.8634 
22.8556 17.1121 14.353 
22.9745 20.1134 14.2387 
21.546 18.6712 15.6308 
24.3909 18.6186 15.5941 
28.6928 17.2439 14.1524 
25.8595 20.2428 14.3305 
27.2529 18.6033 12.891 
27.2975 18.7032 15.8564 
25.8587 17.2666 14.364 
28.5466 20.1881 14.3706 
1.37109 21.6128 12.8147 
1.52433 24.3453 13.0178 
1.53938 21.4562 15.847 
1.32142 24.5608 15.902 
2.95639 23.1078 14.3604 
4.03681 21.6204 15.672 
0.0358165 23.1804 14.4423 
7.06366 24.485 12.9954 
4.11491 21.5608 13.0038 
7.24719 21.5506 12.7412 
5.67382 22.9457 14.2629 
7.12861 21.5808 15.626 
4.34123 24.4379 15.645 
6.94113 24.4122 15.7448 
9.82625 24.4085 12.7896 
10.2485 21.3165 12.9453 
8.5046 22.8331 14.0038 
10.1734 21.5153 15.915 
9.89107 24.3632 15.8323 
11.31 23.0238 14.5123 
12.6694 24.2934 12.9284 
15.6317 24.265 13.1194 
15.7241 21.4713 13.0039 
12.8976 21.5956 12.9446 
12.8616 21.6764 15.8864 
15.6938 21.5544 15.7792 
12.8049 24.4509 15.9506 
15.8383 24.5482 16.0464 
14.1438 23.0495 14.5652 
18.721 21.6062 12.8339 
18.6541 24.4107 13.0674 
20.2327 23.012 14.3429 
18.7746 21.6745 15.8496 
18.6331 24.4576 15.7401 
17.1915 22.9319 14.3869 
23.0295 23.0088 14.2991 
21.3255 21.4849 12.9827 
24.5582 21.5801 12.9996 
21.5053 24.5153 12.8763 
24.3709 24.2979 12.9399 
21.6172 21.5021 15.8413 
24.4056 21.5734 15.8719 
21.7009 24.5152 15.8703 
24.4916 24.5606 15.8812 
27.2938 21.6064 12.937 
27.2964 24.5873 12.9254 
25.9864 23.0073 14.2932 
27.2178 21.4848 15.8033 
1.38519 27.3252 12.8929 
1.35534 27.3189 15.7821 
2.81905 25.8771 14.3887 
2.83066 28.57 14.3914 
5.55767 26.0199 14.3261 
4.24874 27.1885 12.9054 
7.12568 27.3053 12.8968 
4.29317 24.6387 12.9853 
4.29672 27.3412 15.7833 
7.16645 27.51 15.617 
9.99904 27.2931 12.7947 
11.1933 25.8724 14.2375 
11.3436 28.5251 14.1714 
9.79602 27.253 15.6141 
8.5808 25.9218 14.3619 
12.9621 27.2428 12.9601 
15.6266 27.0424 12.9531 
14.2347 28.5743 14.3122 
12.8823 27.3393 15.7621 
15.8567 27.0057 15.7585 
14.0894 25.7098 14.3744 
18.5471 27.0949 12.9015 
17.1618 25.7626 14.3235 
17.0818 28.4401 14.2009 
18.5368 27.3596 15.7869 
20.0947 25.9455 14.4349 
19.9159 28.7 14.5007 
21.4178 27.305 12.8573 
24.349 27.1364 13.0811 
23.0286 25.8562 14.3322 
21.651 27.0811 15.9123 
24.2675 27.4567 15.9802 
22.7846 28.6947 14.4184 
27.2415 27.1326 12.9823 
28.6762 25.849 14.2927 
27.3609 24.6746 15.9617 
27.1984 27.5034 15.786 
25.7482 25.8243 14.4507 
1.46294 1.64863 18.7275 
2.98555 2.84888 17.0731 
2.85932 0.145661 17.3448 
2.91892 2.7658 20.1241 
3.02613 0.00805994 20.1061 
4.16627 1.58987 18.594 
7.07233 1.48849 18.8582 
5.8298 2.82469 17.2975 
5.72674 0.00966449 17.3143 
5.79557 2.94254 20.0402 
5.72378 0.0747227 20.1644 
10.0018 1.1978 18.5542 
8.61474 2.79019 17.1917 
11.3621 2.76882 17.1304 
8.5127 0.0142957 17.1322 
8.61962 2.78261 20.1644 
11.5402 2.90072 20.18 
8.56251 0.0638498 20.1628 
12.7573 1.37299 18.619 
15.6807 1.46869 18.6561 
14.2652 2.78571 17.244 
14.1438 0.0969066 17.2334 
14.2827 2.78086 20.2345 
18.4669 1.36124 18.6698 
17.1288 2.7447 17.2167 
19.8475 2.78253 17.4178 
16.9669 0.0737545 17.2115 
17.1477 2.86233 20.144 
19.9321 2.89779 19.8802 
17.1602 0.207704 20.1627 
21.6086 1.4282 18.6977 
22.9717 2.78575 17.2166 
24.3979 1.57119 18.7479 
22.8931 3.05207 20.0455 
22.9079 0.0884354 20.1029 
28.6014 0.0851819 17.2823 
28.6348 2.84696 17.1636 
27.1534 1.50858 18.7313 
25.827 2.85933 17.2378 
25.701 0.218898 17.2745 
28.7089 3.07319 20.0589 
25.8224 2.89239 20.1041 
25.8666 0.141234 20.1889 
28.5958 0.154746 20.2574 
1.391 4.22705 18.6724 
1.25497 7.12833 18.6068 
2.77433 5.78802 17.2475 
2.85738 5.57737 19.8921 
0.00634091 5.7053 20.1894 
4.37177 4.15783 18.5019 
4.41689 7.19686 18.5475 
7.33638 4.19468 18.5271 
5.60494 5.59597 17.126 
7.07898 7.13267 18.6056 
5.89815 5.73157 20.1549 
10.023 4.2665 18.652 