ITEM: TIMESTEP
59042
ITEM: NUMBER OF ATOMS
18
ITEM: BOX BOUNDS pp pp pp
0.0000000000000000e+00 2.8712000000000000e+01
0.0000000000000000e+00 2.8712000000000000e+01
0.0000000000000000e+00 2.8712000000000000e+01
ITEM: ATOMS x y z c_cna 
24.2497 4.16117 23.998 5 
24.437 7.14604 24.4132 5 
25.8359 5.74728 23.0015 5 
27.2347 4.34855 24.4132 5 
27.422 7.33343 23.998 5 
23.0154 2.92709 25.8356 5 
25.8312 2.77309 25.8356 5 
0.0984419 5.75194 25.8356 5 
24.2497 4.1612 27.6733 5 
22.8613 5.74271 25.8356 5 
24.4371 7.14603 27.258 5 
25.8359 5.74727 28.6698 5 
27.2347 4.34853 27.258 5 
25.0866 4.99835 25.8357 5 
27.4219 7.33338 27.6732 5 
26.5854 6.49626 25.8356 5 
28.6563 8.56752 25.8356 5 
25.8406 8.72142 25.8356 5 
ITEM: TIMESTEP
59043
ITEM: NUMBER OF ATOMS
18
ITEM: BOX BOUNDS pp pp pp
0.0000000000000000e+00 2.8712000000000000e+01
0.0000000000000000e+00 2.8712000000000000e+01
0.0000000000000000e+00 2.8712000000000000e+01
ITEM: ATOMS x y z c_cna 
24.2497 4.16117 23.998 5 
24.437 7.14604 24.4132 5 
25.8359 5.74728 23.0015 5 
27.2347 4.34855 24.4132 5 
27.422 7.33343 23.998 5 
23.0154 2.92709 25.8356 5 
25.8312 2.77309 25.8356 5 
0.0984419 5.75194 25.8356 5 
24.2497 4.1612 27.6733 5 
22.8613 5.74271 25.8356 5 
24.4371 7.14603 27.258 5 
25.8359 5.74727 28.6698 5 
27.2347 4.34853 27.258 5 
25.0866 4.99835 25.8357 5 
27.4219 7.33338 27.6732 5 
26.5854 6.49626 25.8356 5 
28.6563 8.56752 25.8356 5 
25.8406 8.72142 25.8356 5 
