ITEM: TIMESTEP
59042
ITEM: NUMBER OF ATOMS
2001
ITEM: BOX BOUNDS pp pp pp
0.0000000000000000e+00 2.8712000000000000e+01
0.0000000000000000e+00 2.8712000000000000e+01
0.0000000000000000e+00 2.8712000000000000e+01
ITEM: ATOMS x y z c_cna 
1.43063 1.44048 1.43389 3 
2.87445 2.86887 2.87572 3 
2.86777 0.0032031 2.8687 3 
4.30467 1.43772 1.43286 3 
7.17377 1.4397 1.43076 3 
5.74075 2.87372 2.86909 3 
5.73912 0.0029325 2.86725 3 
10.0439 1.44008 1.43037 3 
8.6094 2.87524 2.86677 3 
11.4793 2.87541 2.86647 3 
11.4789 0.00371518 2.86612 3 
8.60896 0.0038224 2.86609 3 
12.9142 1.43945 1.43092 3 
15.7833 1.4373 1.43295 3 
14.3489 2.87473 2.8677 3 
14.3482 0.00227695 2.86751 3 
18.6469 1.42987 1.44024 3 
17.2161 2.87291 2.87187 3 
20.0767 2.86907 2.88396 3 
20.0793 2.8602 0.0113591 3 
21.4878 1.39932 1.47401 3 
22.9509 2.86232 2.88321 3 
24.3985 1.41331 1.46233 3 
22.8663 2.77789 0.098546 3 
28.7077 2.87534 2.87379 3 
27.2863 1.42253 1.45114 3 
25.8382 2.86708 2.87777 3 
25.868 2.82555 0.0402457 3 
1.44863 4.29687 1.45125 3 
1.45789 7.1846 1.4626 3 
2.87877 5.74354 2.87998 3 
0.00401793 5.7449 2.87792 3 
0.0456839 5.71515 0.0403479 3 
2.87482 5.7477 0.00458637 3 
4.30715 4.30923 1.43581 3 
7.17414 4.31143 1.43179 3 
4.30917 7.18547 1.43895 3 
7.17487 7.184 1.43289 3 
5.74195 5.74669 2.87073 3 
10.0442 4.31162 1.43085 3 
10.0446 7.18321 1.4312 3 
8.60986 5.74721 2.86746 3 
11.4797 5.7472 2.86667 3 
12.9148 4.31124 1.43107 3 
15.7846 4.31047 1.43274 3 
12.9152 7.18288 1.4309 3 
15.7853 7.18303 1.43177 3 
14.3496 5.7472 2.86739 3 
18.6504 4.30905 1.43877 3 
18.6523 7.18527 1.4358 3 
17.2175 5.74771 2.87062 3 
20.0808 5.75091 2.87983 3 
20.0847 5.74693 0.00447826 3 
24.3898 4.30133 1.4661 3 
21.5018 4.30998 1.46237 3 
21.5109 7.19765 1.45121 3 
22.9556 5.74957 2.87781 3 
24.4054 7.17757 1.43964 3 
22.914 5.77949 0.0402685 3 
27.2662 4.31694 1.43965 3 
27.2818 7.1932 1.46623 3 
25.8358 5.74725 2.87117 3 
1.47185 10.0951 1.47433 3 
2.88292 8.6254 2.88427 3 
2.88562 11.509 2.88616 3 
0.00878858 8.63213 2.88352 3 
0.0110412 11.5034 0.0114969 3 
2.8803 8.6344 0.0115644 3 
0.00200036 11.5061 2.88428 3 
0.0933948 8.71663 0.0987268 3 
4.31272 10.0646 1.44057 3 
7.17626 10.0572 1.43321 3 
5.74351 8.62154 2.87217 3 
5.74495 11.4966 2.87232 3 
10.0452 10.0549 1.43113 3 
8.61055 8.61965 2.86795 3 
11.4801 8.61897 2.86665 3 
8.61135 11.4921 2.86787 3 
11.4805 11.4906 2.86639 3 
12.9155 10.0543 1.43053 3 
15.7857 10.0547 1.43085 3 
14.3501 8.61913 2.86686 3 
14.3505 11.4905 2.86624 3 
18.6548 10.0567 1.43291 3 
17.2187 8.62068 2.86915 3 
20.0851 8.62555 2.87573 3 
17.2204 11.4914 2.86733 3 
20.0918 11.4912 2.86877 3 
21.5289 10.054 1.43392 3 
22.9638 8.61909 2.87379 3 
22.9575 11.4977 2.87569 3 
24.3854 10.0719 1.45125 3 
27.2732 10.0811 1.46257 3 
25.8335 8.62732 2.87796 3 
25.8321 11.502 2.87995 3 
25.8037 8.66897 0.0403252 3 
25.8363 11.4979 0.00446176 3 
1.4412 12.9359 1.44048 3 
1.43365 15.7995 1.43304 3 
2.87303 14.3682 2.87222 3 
4.305 15.7999 1.43154 3 
4.30893 12.9323 1.43337 3 
7.17659 12.9285 1.43162 3 
7.17574 15.7992 1.43083 3 
5.74242 14.3659 2.86854 3 
10.0457 12.9265 1.43065 3 
10.0456 15.7977 1.43026 3 
8.61123 14.3634 2.86682 3 
11.4808 14.3619 2.86593 3 
12.9157 12.9256 1.43019 3 
15.7863 12.9256 1.43022 3 
12.9159 15.7967 1.42989 3 
15.7867 15.7963 1.42979 3 
14.351 14.3614 2.86566 3 
18.6576 12.9254 1.43065 3 
18.6575 15.7965 1.43002 3 
17.2217 14.3613 2.86594 3 
20.0917 14.3625 2.86717 3 
21.5264 12.9279 1.43276 3 
21.5285 15.797 1.43053 3 
22.9625 14.364 2.86894 3 
24.3979 12.9303 1.43567 3 
24.4001 15.7973 1.43147 3 
28.71 14.3667 2.87202 3 
27.2741 12.9322 1.43884 3 
27.2726 15.798 1.43263 3 
25.8353 14.3651 2.87055 3 
1.43141 18.6686 1.43084 3 
2.8685 17.2347 2.86766 3 
2.86701 20.104 2.86612 3 
4.30294 18.6691 1.43051 3 
7.17423 18.669 1.4302 3 
5.73976 17.2346 2.86671 3 
5.73835 20.1042 2.8658 3 
10.0449 18.6683 1.42994 3 
8.61035 17.2338 2.86604 3 
11.4806 17.2327 2.86553 3 
8.60927 20.1039 2.86552 3 
11.4798 20.1032 2.86531 3 
12.9155 18.6675 1.42973 3 
15.7863 18.667 1.42971 3 
14.351 17.232 2.8653 3 
14.3504 20.1024 2.86532 3 
18.6575 18.6671 1.42982 3 
17.2218 17.232 2.86543 3 
20.0927 17.2323 2.86587 3 
17.2213 20.1022 2.86551 3 
20.0926 20.1024 2.86582 3 
21.5289 18.6673 1.43004 3 
24.4003 18.6675 1.43042 3 
22.964 17.2327 2.86646 3 
22.9642 20.1028 2.86606 3 
28.7074 20.1035 2.86626 3 
28.7081 17.2339 2.86765 3 
27.2717 18.6679 1.43079 3 
25.8358 17.2331 2.86712 3 
25.8358 20.1031 2.86624 3 
1.43073 21.539 1.43018 3 
2.86691 22.974 2.86595 3 
1.43118 24.4092 1.43055 3 
4.30215 24.4097 1.43004 3 
4.30217 21.5392 1.43 3 
7.17331 21.5392 1.42985 3 
5.73788 22.9743 2.86555 3 
7.17289 24.41 1.4298 3 
10.0441 21.5388 1.42975 3 
8.60859 22.9743 2.86536 3 
11.4791 22.9736 2.86539 3 
10.0437 24.4095 1.42979 3 
12.9146 21.5379 1.42975 3 
15.7854 21.5373 1.4299 3 
14.3492 22.9725 2.86571 3 
15.7838 24.4071 1.43049 3 
12.9139 24.4086 1.42997 3 
18.6567 21.5373 1.43016 3 
17.2198 22.9717 2.86631 3 
20.0911 22.9717 2.86726 3 
18.6546 24.4064 1.43116 3 
21.5283 21.5377 1.43055 3 
24.3999 21.5383 1.43061 3 
22.9635 22.9725 2.8673 3 
24.3991 24.4083 1.43232 3 
21.526 24.4068 1.43266 3 
28.7076 22.9736 2.86647 3 
27.2714 21.5387 1.43048 3 
25.8358 22.9732 2.86696 3 
27.2716 24.409 1.43142 3 
0.00214596 28.7086 2.87562 3 
1.43328 27.2784 1.43276 3 
2.86792 25.8438 2.86714 3 
4.30199 27.281 1.4306 3 
7.1732 27.2807 1.43011 3 
5.73781 25.845 2.86591 3 
10.0437 27.2806 1.43001 3 
8.60854 25.8449 2.86557 3 
11.4788 25.8444 2.86569 3 
12.9138 27.2799 1.43037 3 
15.783 27.2779 1.43129 3 
14.3483 25.843 2.86644 3 
20.074 28.6974 2.88576 3 
17.2147 28.7099 2.87192 3 
18.6507 27.2741 1.43302 3 
17.2172 25.8405 2.86813 3 
20.0866 25.8381 2.8718 3 
22.9576 28.7003 2.88388 3 
21.5184 27.2705 1.44012 3 
22.9616 25.8397 2.87163 3 
24.3976 27.2741 1.43854 3 
22.9486 28.703 0.0112443 3 
25.8395 28.7044 2.87972 3 
28.7092 25.8423 2.86886 3 
27.2738 27.276 1.43556 3 
25.8363 25.8412 2.87033 3 
25.8354 28.7085 0.00433384 3 
1.43273 1.43825 4.30692 3 
1.43208 1.43876 7.17585 3 
2.86981 2.87334 5.74226 3 
2.86822 0.00259772 5.74044 3 
4.30609 1.43647 4.30638 3 
7.17495 1.43849 4.30323 3 
4.30419 1.43823 7.17564 3 
7.17498 1.43844 7.17457 3 
5.74105 2.87359 5.74092 3 
5.73974 0.00225732 5.73949 3 
10.0443 1.43926 4.30206 3 
10.0445 1.43892 7.17355 3 
8.61007 2.87465 5.73862 3 
11.4793 2.87504 5.73802 3 
11.4789 0.00318818 5.73777 3 
8.60946 0.00308132 5.73796 3 
12.9138 1.43897 4.30263 3 
15.7819 1.43751 4.30537 3 
12.9136 1.43889 7.174 3 
15.7826 1.4383 7.17587 3 
14.3482 2.87485 5.73934 3 
14.3478 0.00225571 5.73933 3 
18.6475 1.4342 4.31192 3 
18.6529 1.43739 7.17735 3 
17.2163 2.87421 5.74257 3 
20.0871 2.87303 5.7442 3 
17.2156 4.55122e-05 5.743 3 
24.3982 1.43289 4.31121 3 
21.5189 1.43033 4.31454 3 
21.5255 1.4368 7.17701 3 
24.3991 1.43751 7.17606 3 
22.9608 2.87215 5.74248 3 
27.2745 1.43507 4.3098 3 
28.7083 2.87468 5.74173 3 
27.2721 1.43823 7.17595 3 
25.8356 2.87339 5.74141 3 
28.7096 0.00111615 5.74219 3 
1.43598 4.30856 4.3099 3 
1.43821 7.18479 4.31148 3 
1.43269 4.31083 7.17602 3 
1.43346 7.18383 7.17625 3 
2.87115 5.74651 5.74321 3 
4.31023 7.18332 4.31061 3 
7.17579 4.31039 4.30427 3 
4.30836 4.30847 4.30875 3 
7.17665 7.1833 4.30514 3 
7.17572 4.31039 7.17525 3 
4.30594 7.18325 7.17702 3 
4.30505 4.31027 7.17636 3 
5.74217 5.74631 5.74198 3 
7.17641 7.18298 7.17581 3 
10.0448 4.31107 4.30251 3 
10.0452 7.18314 4.30282 3 
10.045 4.31084 7.1739 3 
8.61068 5.74681 5.73915 3 
10.0455 7.18306 7.17413 3 
11.4798 5.74712 5.7382 3 
12.9143 4.31116 4.30268 3 
15.7829 4.31104 4.30493 3 
12.9148 7.18326 4.30257 3 
15.7837 7.18392 4.30426 3 
12.9141 4.31111 7.17404 3 
15.7831 4.31121 7.1756 3 
12.9146 7.18333 7.17398 3 
14.3488 5.74742 5.73911 3 
15.7839 7.18376 7.17523 3 
18.6494 4.31104 4.31034 3 
18.6511 7.18587 4.30869 3 
18.6537 4.31095 7.17674 3 
17.2174 5.74793 5.74182 3 
18.6545 7.18388 7.17623 3 
20.0884 5.74775 5.743 3 
21.5214 4.30958 4.31121 3 
21.5236 7.1858 4.30984 3 
24.3998 7.18313 4.30737 3 
24.397 4.30834 4.30799 3 
21.5261 4.31041 7.17604 3 
24.3991 4.31037 7.17488 3 
21.5269 7.18333 7.17593 3 
22.962 5.74686 5.74137 3 
24.3998 7.18306 7.17518 3 
28.7096 5.74739 5.74152 3 
27.2718 4.31125 4.30735 3 
27.2747 7.186 4.30815 3 
27.2718 4.31113 7.17516 3 
25.8358 5.74715 5.74019 3 
27.2725 7.18384 7.17499 3 
1.44075 10.064 4.31493 3 
1.43412 10.0575 7.17734 3 
2.87262 8.62129 5.74456 3 
2.87333 11.4968 5.74585 3 
4.31217 10.0602 4.31232 3 
7.17762 10.0569 4.30574 3 
4.30672 10.057 7.17775 3 
5.74323 8.62012 5.74292 3 
7.17707 10.056 7.17622 3 
5.744 11.4943 5.74344 3 
10.0458 10.0553 4.30294 3 
8.61131 8.61943 5.73959 3 
10.046 10.0554 7.17422 3 
11.4802 8.6192 5.73822 3 
8.61187 11.4921 5.7397 3 
11.4807 11.4911 5.73804 3 
12.9152 10.055 4.30227 3 
15.7845 10.0558 4.30335 3 
12.9151 10.0553 7.17375 3 
14.3495 8.61959 5.73873 3 
15.7846 10.0558 7.17466 3 
14.3501 11.4912 5.73812 3 
18.6534 10.0579 4.30642 3 
17.2185 8.62065 5.74094 3 
18.6553 10.056 7.17564 3 
20.0897 8.62091 5.74224 3 
17.2198 11.492 5.73957 3 
20.0913 11.4917 5.74049 3 
21.5268 10.0561 4.30697 3 
24.3971 10.0593 4.30994 3 
21.5274 10.0554 7.17588 3 
22.9633 8.61958 5.74176 3 
22.962 11.4932 5.74233 3 
24.3995 10.056 7.17609 3 
27.2734 10.0615 4.3115 3 
28.7108 8.62216 5.74275 3 
28.7099 11.4959 5.74453 3 
25.836 8.62089 5.74154 3 
27.2724 10.0567 7.17629 3 
25.8351 11.4944 5.74325 3 
1.43671 12.9354 4.31227 3 
1.43325 15.801 4.30555 3 
1.4334 12.9301 7.17771 3 
1.43231 15.8005 7.17609 3 
2.87073 14.3674 5.74337 3 
4.31197 12.9354 4.31162 3 
4.30622 15.8014 4.30523 3 
7.178 12.9299 4.30533 3 
7.17633 15.7999 4.30312 3 
4.30675 12.9303 7.17792 3 
4.30507 15.8008 7.17608 3 
7.17732 12.9288 7.17615 3 
5.7432 14.3668 5.74227 3 
7.17654 15.8002 7.1751 3 
10.0462 12.9273 4.30263 3 
10.0459 15.7983 4.30183 3 
10.0463 12.9275 7.17405 3 
8.61183 14.3641 5.7391 3 
10.0462 15.7987 7.17346 3 
11.481 14.3625 5.73757 3 
12.9156 12.9264 4.30178 3 
15.7856 12.9266 4.30219 3 
12.9158 15.7973 4.30125 3 
15.7862 15.7969 4.30125 3 
12.9156 12.9269 7.17334 3 
15.7854 12.927 7.1738 3 
12.9158 15.7978 7.17279 3 
14.3507 14.3621 5.73734 3 
15.7859 15.7974 7.1729 3 
18.6562 12.9268 4.30324 3 
18.6566 15.7974 4.30195 3 
18.6562 12.9269 7.17452 3 
17.221 14.3621 5.73789 3 
18.6563 15.7978 7.17367 3 
20.0911 14.3632 5.73946 3 
21.5252 12.9294 4.30636 3 
21.5273 15.7983 4.30308 3 
24.3971 12.9316 4.30874 3 
24.399 15.7991 4.30407 3 
21.527 12.9276 7.17565 3 
21.5273 15.7984 7.17455 3 
22.9623 14.3644 5.74088 3 
24.3989 12.9284 7.17641 3 
24.399 15.7991 7.17519 3 
28.7086 14.3666 5.74281 3 
27.2718 12.9334 4.31056 3 
27.2718 15.7999 4.30492 3 
27.2718 12.9292 7.177 3 
25.8349 14.3655 5.74192 3 
27.2715 15.7998 7.17567 3 
1.43169 18.6692 4.30263 3 
1.43163 18.6695 7.17404 3 
2.86837 17.2353 5.73952 3 
2.86739 20.1041 5.73781 3 
4.30358 18.6696 4.30244 3 
7.17463 18.6694 4.30178 3 
4.30364 18.6698 7.17397 3 
5.74032 17.2353 5.73903 3 
7.17498 18.6696 7.17346 3 
5.73882 20.1044 5.7375 3 
10.0451 18.6686 4.30123 3 
8.61071 17.2343 5.73774 3 
10.0453 18.6688 7.17273 3 
11.4807 17.2332 5.73695 3 
8.60957 20.1041 5.73697 3 
11.4799 20.1033 5.73671 3 
12.9155 18.6677 4.30095 3 
15.786 18.6673 4.301 3 
12.9154 18.668 7.17245 3 
14.3509 17.2325 5.73675 3 
15.7857 18.6675 7.17265 3 
14.3502 20.1025 5.7368 3 
18.6569 18.6674 4.30137 3 
17.2212 17.2325 5.73711 3 
18.6565 18.6676 7.17306 3 
20.092 17.2329 5.7378 3 
17.2208 20.1022 5.7372 3 
20.0922 20.1024 5.73757 3 
21.5281 18.6677 4.30181 3 
24.3997 18.6681 4.30217 3 
21.5278 18.668 7.17346 3 
22.9634 17.2335 5.73845 3 
22.9638 20.1028 5.73776 3 
24.3995 18.6684 7.17372 3 
28.7076 20.1037 5.73788 3 
28.7078 17.2347 5.73934 3 
27.2716 18.6686 4.30248 3 
25.8354 17.2341 5.73894 3 
27.2715 18.6689 7.17392 3 
25.8357 20.1032 5.73786 3 
1.43138 21.5386 4.30193 3 
1.43225 24.408 4.30306 3 
1.43158 21.5385 7.17355 3 
2.86748 22.9735 5.7379 3 
1.43213 24.4079 7.17454 3 
4.30276 21.539 4.30158 3 
4.30299 24.4089 4.302 3 
7.17367 21.5392 4.30122 3 
7.17337 24.4094 4.3013 3 
4.30309 21.5389 7.17326 3 
7.17405 21.5391 7.17281 3 
5.73838 22.974 5.73728 3 
7.17375 24.4091 7.17297 3 
4.30325 24.4086 7.17377 3 
10.0443 21.5388 4.301 3 
10.0438 24.4091 4.30115 3 
10.0445 21.5387 7.17253 3 
8.6089 22.974 5.73683 3 
11.4791 22.9734 5.73689 3 
10.044 24.4088 7.17275 3 
15.785 21.5371 4.30147 3 
12.9146 21.5379 4.30108 3 
12.9138 24.4082 4.30156 3 
15.7833 24.4065 4.30273 3 
12.9145 21.5378 7.1727 3 
15.7848 21.537 7.17329 3 
14.349 22.9722 5.73756 3 
15.7832 24.4064 7.17487 3 
12.9136 24.4079 7.17336 3 
18.6534 24.405 4.30477 3 
18.656 21.5369 4.30206 3 
18.6559 21.5368 7.1737 3 
17.2193 22.9712 5.73868 3 
20.0912 22.9712 5.73918 3 
18.6545 24.4057 7.17577 3 
21.5263 24.4054 4.30515 3 
21.5279 21.5373 4.30231 3 
24.3998 21.5378 4.30229 3 
24.3997 24.4064 4.30462 3 
21.5278 21.5371 7.17384 3 
22.9637 22.9717 5.73908 3 
24.3999 24.4066 7.17549 3 
24.3998 21.5376 7.17383 3 
21.5271 24.406 7.17579 3 
28.708 22.9729 5.73842 3 
27.2717 21.5382 4.30215 3 
27.2724 24.4072 4.30392 3 
27.2718 21.538 7.17372 3 
25.836 22.9724 5.73879 3 
27.2723 24.4073 7.17508 3 
1.43442 27.2768 4.3063 3 
1.43251 27.2786 7.1756 3 
2.86843 25.843 5.73944 3 
4.3033 27.2795 4.30319 3 
7.17393 27.2797 4.30207 3 
4.30334 27.2794 7.17449 3 
5.73849 25.8442 5.73789 3 
7.17421 27.2793 7.17374 3 
10.0439 27.2799 4.30157 3 
8.60891 25.8443 5.73724 3 
10.0441 27.2795 7.17318 3 
11.4788 25.8439 5.73736 3 
12.9134 27.2791 4.30229 3 
15.7816 27.2765 4.3049 3 
12.9134 27.279 7.17382 3 
14.3479 25.8424 5.73878 3 
15.7824 27.2776 7.17581 3 
18.6477 27.2709 4.31116 3 
20.0863 28.7096 5.7454 3 
17.2164 25.8397 5.74183 3 
18.6529 27.2761 7.17751 3 
20.0888 25.839 5.74293 3 
22.9617 28.7105 5.74418 3 
21.5229 27.2709 4.31184 3 
24.3997 27.2729 4.31021 3 
21.5261 27.2762 7.17735 3 
22.963 25.8398 5.74247 3 
24.3996 27.2771 7.17674 3 
27.2745 27.2747 4.30855 3 
25.8364 28.7119 5.74299 3 
28.7092 25.8419 5.74076 3 
25.8366 25.8409 5.74167 3 
27.2725 27.2779 7.17622 3 
2.86788 2.87485 8.61039 3 
2.86752 0.00317166 8.6101 3 
1.43142 1.43934 10.0449 3 
2.86734 2.87521 11.4795 3 
2.86719 0.00355646 11.4796 3 
5.73954 2.87452 8.6102 3 
5.73894 0.00297664 8.6097 3 
4.30319 1.43906 10.0448 3 
7.17432 1.43888 10.0446 3 
5.73895 2.87489 11.4795 3 
5.73859 0.0033492 11.4795 3 
8.60994 2.87467 8.60948 3 
11.4793 2.87494 8.60913 3 
10.0444 1.43895 10.0443 3 
8.60963 2.87483 11.4795 3 
11.4794 2.87498 11.4795 3 
11.4789 0.0030697 8.60899 3 
8.60942 0.00304254 8.60909 3 
11.479 0.00316575 11.4795 3 
8.60923 0.00321753 11.4795 3 
14.3486 2.87496 8.60985 3 
12.9139 1.43896 10.0445 3 
15.7839 1.43878 10.0449 3 
14.3491 2.87504 11.4794 3 
14.3483 0.00268739 8.60988 3 
14.3488 0.00294874 11.4795 3 
17.2189 2.87476 8.61071 3 
20.0906 2.87442 8.61065 3 
20.0912 0.00257993 11.4795 3 
18.6551 1.43856 10.0451 3 
17.2198 2.87492 11.4794 3 
20.0915 2.87477 11.4794 3 
17.2185 0.00201973 8.61094 3 
20.0903 0.00158995 8.61113 3 
17.2195 0.00265776 11.4795 3 
22.9631 2.87436 8.60999 3 
22.9631 0.00197053 8.61068 3 
21.5272 1.43853 10.0449 3 
22.9635 2.87478 11.4795 3 
24.3994 1.43883 10.0447 3 
22.9634 0.00286055 11.4795 3 
28.7074 2.87538 11.4795 3 
28.7077 2.87518 8.6101 3 
25.8355 2.87483 8.60977 3 
28.7079 0.00293086 8.61038 3 
25.8357 0.00251021 8.61043 3 
27.2715 1.43921 10.0448 3 
25.8355 2.87512 11.4795 3 
28.7075 0.00349575 11.4796 3 
25.8356 0.00321779 11.4795 3 
1.43163 4.31127 10.0448 3 
2.86841 5.7471 8.61054 3 
1.43205 7.18339 10.0448 3 
2.86771 5.74721 11.4795 3 
5.74014 5.74674 8.6106 3 
4.30405 7.1832 10.0451 3 
7.17481 4.31072 10.0448 3 
4.30357 4.31091 10.0449 3 
7.1753 7.18298 10.0449 3 
5.73936 5.74693 11.4795 3 
8.61049 5.74678 8.60979 3 
11.4798 5.74707 8.60924 3 
10.0449 4.31086 10.0445 3 
10.0453 7.18303 10.0445 3 
8.61009 5.74686 11.4795 3 
11.4798 5.74705 11.4795 3 
14.3491 5.74732 8.60975 3 
12.9143 4.31108 10.0445 3 
15.7843 4.31114 10.0448 3 
12.9148 7.18326 10.0445 3 
15.7848 7.18335 10.0447 3 
14.3495 5.74724 11.4794 3 
17.2195 5.74736 8.61046 3 
20.0912 5.74703 8.61039 3 
18.6556 4.31096 10.0449 3 
18.656 7.18314 10.0449 3 
17.2203 5.74716 11.4794 3 
20.0919 5.74688 11.4794 3 
22.9635 5.74675 8.60979 3 
21.5275 4.31073 10.0447 3 
21.5279 7.18283 10.0447 3 
22.9638 5.74677 11.4794 3 
24.3999 7.18285 10.0445 3 
24.3996 4.31086 10.0445 3 
28.7081 5.74738 8.60986 3 
28.7077 5.74733 11.4795 3 
25.8358 5.74705 8.60947 3 
27.2716 4.31124 10.0445 3 
27.2719 7.18324 10.0445 3 
25.8358 5.74704 11.4794 3 
2.86899 8.61983 8.6109 3 
2.86926 11.4928 8.61142 3 
1.43232 10.0558 10.045 3 
2.86808 8.61947 11.4795 3 
2.86829 11.4918 11.4795 3 
5.74075 8.61947 8.61097 3 
5.74117 11.4924 8.61123 3 
4.30448 10.0558 10.0453 3 
7.17578 10.0555 10.0451 3 
5.73984 8.6193 11.4795 3 
5.74017 11.4918 11.4795 3 
8.61101 8.6192 8.61002 3 
11.4803 8.61922 8.60924 3 
8.61145 11.4917 8.61011 3 
11.4807 11.4913 8.60913 3 
11.4803 8.6192 11.4795 3 
10.0458 10.0553 10.0446 3 
8.61055 8.61916 11.4795 3 
8.61097 11.4915 11.4795 3 
11.4807 11.4912 11.4795 3 
14.3497 8.61946 8.60954 3 
14.3502 11.4912 8.60919 3 
12.9153 10.0553 10.0444 3 
15.7853 10.0553 10.0446 3 
14.35 8.61931 11.4795 3 
14.3504 11.4911 11.4795 3 
17.2201 8.61956 8.61018 3 
20.0917 8.61925 8.61033 3 
17.2206 11.4912 8.60972 3 
20.092 11.491 8.61011 3 
18.6564 10.055 10.0448 3 
17.2207 8.61919 11.4794 3 
20.0922 8.61887 11.4795 3 
17.221 11.4909 11.4795 3 
20.0923 11.4906 11.4795 3 
22.9639 8.61896 8.61012 3 
22.9635 11.4912 8.61045 3 
21.5281 10.0548 10.0449 3 
22.9641 8.61873 11.4795 3 
22.9639 11.4907 11.4796 3 
24.3999 10.055 10.0448 3 
28.7085 8.61983 8.61015 3 
28.708 11.4915 11.4795 3 
28.7084 11.4924 8.61091 3 
25.836 8.61935 8.60988 3 
25.8357 11.4917 8.61059 3 
28.708 8.61935 11.4795 3 
27.272 10.0554 10.0448 3 
25.836 8.61899 11.4795 3 
25.8358 11.491 11.4795 3 
2.86869 14.3647 8.61121 3 
1.43217 12.928 10.0453 3 
1.43179 15.7993 10.0451 3 
2.86808 14.3637 11.4795 3 
5.74095 14.3646 8.61097 3 
4.30458 12.9282 10.0454 3 
4.30411 15.7996 10.0451 3 
7.17601 12.9279 10.0451 3 
7.17571 15.7994 10.0448 3 
5.74014 14.3638 11.4795 3 
8.61147 14.3637 8.60983 3 
11.481 14.3628 8.60884 3 
10.0461 12.9273 10.0445 3 
10.046 15.7986 10.0443 3 
8.61104 14.3633 11.4795 3 
11.4809 14.3627 11.4795 3 
14.3506 14.3623 8.6087 3 
12.9156 12.9269 10.0442 3 
15.7857 12.9267 10.0443 3 
12.9158 15.7979 10.0441 3 
15.7859 15.7974 10.0441 3 
14.3507 14.3623 11.4795 3 
17.221 14.3622 8.60904 3 
20.0918 14.3625 8.60972 3 
18.6565 12.9265 10.0446 3 
18.6565 15.7975 10.0444 3 
17.2212 14.362 11.4795 3 
20.0921 14.3621 11.4796 3 
22.9633 14.363 8.61027 3 
21.5278 12.9266 10.0449 3 
21.5277 15.7978 10.0447 3 
22.9636 14.3623 11.4796 3 
24.3994 15.7982 10.0449 3 
24.3996 12.927 10.045 3 
28.7079 14.3642 8.61096 3 
25.8354 14.3635 8.61061 3 
28.7077 14.3633 11.4796 3 
27.2717 12.9275 10.0451 3 
27.2715 15.7988 10.045 3 
25.8355 14.3628 11.4796 3 
2.86789 17.2349 8.61003 3 
2.86744 20.1042 8.60908 3 
1.43151 18.6693 10.0446 3 
2.86772 17.2345 11.4796 3 
2.86743 20.1042 11.4796 3 
5.73989 17.235 8.6098 3 
5.73897 20.1044 8.60883 3 
4.30351 18.6696 10.0445 3 
7.17489 18.6695 10.0443 3 
5.7396 17.2346 11.4795 3 
5.73899 20.1044 11.4796 3 
8.61083 17.2344 8.60914 3 
11.4807 17.2334 8.60845 3 
8.6098 20.1041 8.60846 3 
11.48 20.1033 8.60825 3 
10.0454 18.6689 10.0441 3 
8.61059 17.2342 11.4796 3 
11.4807 17.2334 11.4796 3 
8.60977 20.1041 11.4796 3 
11.4799 20.1033 11.4796 3 
14.3507 17.2327 8.6083 3 
14.35 20.1025 8.6084 3 
12.9153 18.668 10.0439 3 
15.7856 18.6675 10.044 3 
14.3507 17.2327 11.4796 3 
14.35 20.1025 11.4796 3 
17.2211 17.2326 8.60862 3 
20.092 17.2329 8.60907 3 
17.2207 20.1022 8.60871 3 
20.092 20.1024 8.60892 3 
18.6564 18.6675 10.0442 3 
17.2211 17.2325 11.4795 3 
20.0921 17.2327 11.4796 3 
17.2207 20.1022 11.4796 3 
20.092 20.1024 11.4796 3 
22.9635 17.2334 8.60948 3 
22.9637 20.1028 8.60907 3 
21.5278 18.6679 10.0444 3 
22.9635 17.2331 11.4797 3 
22.9637 20.1028 11.4796 3 
24.3995 18.6683 10.0445 3 
28.7075 20.1037 8.60915 3 
28.7076 17.2345 8.60994 3 
25.8353 17.2339 8.60973 3 
25.8356 20.1032 8.60913 3 
28.7075 20.1037 11.4796 3 
28.7075 17.2341 11.4796 3 
27.2714 18.6688 10.0446 3 
25.8354 17.2336 11.4797 3 
25.8356 20.1032 11.4797 3 
2.86745 22.9735 8.60918 3 
1.4315 21.5386 10.0445 3 
2.86735 22.9737 11.4796 3 
1.43163 24.4086 10.0447 3 
5.73859 22.9739 8.60875 3 
7.17381 24.4091 10.0442 3 
4.30314 21.539 10.0443 3 
7.17419 21.5391 10.0441 3 
5.73859 22.974 11.4796 3 
4.30301 24.4089 10.0444 3 
8.60913 22.9739 8.60838 3 
11.4791 22.9732 8.60847 3 
10.044 24.4087 10.0441 3 
10.0445 21.5386 10.044 3 
8.60916 22.9739 11.4796 3 
11.4792 22.9732 11.4796 3 
14.349 22.9722 8.60909 3 
15.7841 24.4073 10.0448 3 
12.9138 24.4081 10.0444 3 
14.3492 22.9724 11.4796 3 
12.9145 21.5378 10.0441 3 
15.7849 21.5371 10.0443 3 
17.2198 22.9716 8.60966 3 
20.0916 22.9717 8.60984 3 
20.0917 22.9721 11.4796 3 
17.22 22.972 11.4796 3 
18.6555 24.407 10.045 3 
18.6561 21.537 10.0445 3 
22.9638 22.9721 8.60981 3 
24.3998 21.5377 10.0445 3 
22.9638 22.9725 11.4796 3 
24.3998 24.4077 10.0449 3 
21.5276 24.4073 10.045 3 
21.5278 21.5373 10.0445 3 
28.7078 22.9731 8.60951 3 
25.8359 22.9726 8.60967 3 
27.2718 24.4082 10.0449 3 
25.8358 22.973 11.4796 3 
27.2717 21.5382 10.0445 3 
28.7077 22.9734 11.4797 3 
2.86763 25.8438 8.60974 3 
1.43157 27.2796 10.0449 3 
2.8673 25.8442 11.4796 3 
5.73851 25.8442 8.60909 3 
7.17394 27.2796 10.0444 3 
4.30297 27.2797 10.0446 3 
5.73843 25.8444 11.4796 3 
8.60905 25.8441 8.60869 3 
11.4788 25.8438 8.60878 3 
11.4789 25.8438 11.4796 3 
8.60899 25.8442 11.4796 3 
10.0441 27.2795 10.0443 3 
14.3483 25.8429 8.6097 3 
14.3487 25.8433 11.4796 3 
15.7837 27.2787 10.045 3 
12.9136 27.2792 10.0445 3 
17.2187 25.842 8.61075 3 
20.0908 25.8418 8.61097 3 
17.2195 25.8428 11.4796 3 
18.655 27.2783 10.0453 3 
20.0914 25.8428 11.4796 3 
22.9635 25.8423 8.61075 3 
21.5272 27.2785 10.0452 3 
22.9636 25.8432 11.4796 3 
24.3996 27.2789 10.045 3 
28.7081 25.8434 8.61021 3 
25.836 25.8429 8.61049 3 
27.2718 27.2793 10.045 3 
25.8357 25.8437 11.4796 3 
28.7077 25.844 11.4797 3 
1.43144 1.4394 12.9142 3 
1.43208 1.4389 15.7832 3 
2.8679 2.87493 14.3486 3 
2.86755 0.00331715 14.349 3 
4.3032 1.43914 12.9142 3 
7.17432 1.43896 12.9144 3 
4.30421 1.43836 15.7834 3 
7.17498 1.43861 15.7845 3 
5.73954 2.87464 14.3488 3 
5.73898 0.00310032 14.3494 3 
10.0444 1.43903 12.9147 3 
10.0445 1.43911 15.7854 3 
11.4794 2.87505 14.3498 3 
8.6099 2.87479 14.3495 3 
8.60941 0.00319132 14.3499 3 
11.479 0.00326145 14.35 3 
12.9139 1.43907 12.9145 3 
15.7839 1.43886 12.914 3 
14.3487 2.87511 14.3491 3 
14.3483 0.0028403 14.3492 3 
12.9137 1.43912 15.785 3 
15.7826 1.43852 15.7831 3 
18.6551 1.43859 12.9138 3 
17.2189 2.87485 14.3482 3 
20.0906 2.87447 14.3482 3 
17.2185 0.00213026 14.3481 3 
18.6529 1.43751 15.7816 3 
20.0902 0.00168124 14.3478 3 
21.5271 1.43856 12.914 3 
24.3995 1.43886 12.9142 3 
22.9631 2.87438 14.3489 3 
21.5254 1.43689 15.7819 3 
24.3991 1.4376 15.7829 3 
22.963 0.00206475 14.3483 3 
28.7079 0.00304379 14.3488 3 
27.2715 1.43923 12.9143 3 
28.7077 2.87525 14.3489 3 
25.8355 2.87486 14.3492 3 
27.272 1.43836 15.7831 3 
25.8357 0.00260087 14.3487 3 
1.43268 4.31091 15.783 3 
1.43164 4.31128 12.9142 3 
1.43203 7.18342 12.9141 3 
2.8684 5.74715 14.3484 3 
1.43342 7.18382 15.7827 3 
4.30359 4.31095 12.914 3 
4.30404 7.18323 12.9139 3 
7.17479 4.31076 12.9142 3 
7.17527 7.18301 12.914 3 
5.7401 5.74681 14.3484 3 
4.30587 7.18327 15.782 3 
4.30504 4.31036 15.7827 3 
7.17568 4.31048 15.7838 3 
7.17633 7.18299 15.7832 3 
10.0448 4.3109 12.9145 3 
10.0453 7.18304 12.9144 3 
8.61043 5.74682 14.3492 3 
10.045 4.31096 15.7851 3 
10.0454 7.18304 15.7848 3 
11.4798 5.7471 14.3497 3 
12.9143 4.31112 12.9144 3 
15.7844 4.31118 12.914 3 
12.9148 7.18326 12.9145 3 
15.7849 7.18335 12.9141 3 
12.9142 4.31125 15.7849 3 
15.7832 4.31132 15.7833 3 
12.9146 7.1833 15.785 3 
15.7839 7.18375 15.7837 3 
14.3492 5.74738 14.3492 3 
18.6556 4.31097 12.9139 3 
18.656 7.18313 12.914 3 
17.2195 5.74738 14.3484 3 
20.0912 5.74702 14.3485 3 
18.6537 4.31103 15.7822 3 
18.6546 7.18385 15.7827 3 
24.3996 4.31087 12.9144 3 
21.5275 4.31073 12.9142 3 
21.5279 7.18279 12.9142 3 
24.3999 7.18285 12.9144 3 
22.9635 5.74675 14.3491 3 
21.5262 4.31044 15.7829 3 
24.3991 4.31039 15.7841 3 
21.5269 7.18329 15.783 3 
24.3998 7.18301 15.7838 3 
27.2716 4.31126 12.9144 3 
27.2719 7.18325 12.9144 3 
28.708 5.7474 14.3491 3 
25.8358 5.74707 14.3495 3 
27.2718 4.31118 15.7838 3 
27.2725 7.18382 15.784 3 
1.43232 10.0558 12.9139 3 
2.86926 11.4927 14.3476 3 
2.86895 8.61983 14.3481 3 
1.43408 10.0575 15.7817 3 
4.30446 10.0557 12.9137 3 
7.17573 10.0555 12.9139 3 
5.74069 8.61948 14.348 3 
5.74109 11.4923 14.3478 3 
4.30664 10.0569 15.7813 3 
7.17697 10.0559 15.7829 3 
8.61093 8.61919 14.349 3 
10.0458 10.0552 12.9144 3 
11.4807 11.4911 14.3499 3 
8.61137 11.4916 14.3489 3 
10.0459 10.0553 15.7848 3 
11.4803 8.61919 14.3497 3 
12.9153 10.0552 12.9146 3 
15.7853 10.0552 12.9143 3 
12.9151 10.0552 15.7852 3 
15.7846 10.0556 15.7843 3 
14.3497 8.6194 14.3494 3 
14.3502 11.4911 14.3498 3 
18.6564 10.055 12.9141 3 
20.0917 8.61921 14.3486 3 
20.092 11.4909 14.349 3 
17.2201 8.61953 14.3487 3 
18.6553 10.0558 15.7834 3 
17.2206 11.4911 14.3493 3 
21.5281 10.0548 12.9142 3 
24.3999 10.0549 12.9142 3 
22.9636 11.4912 14.3487 3 
21.5275 10.0553 15.7832 3 
24.3995 10.0559 15.783 3 
22.9639 8.6189 14.3489 3 
27.272 10.0553 12.9142 3 
25.8357 11.4917 14.3485 3 
28.7084 11.4923 14.3481 3 
27.2724 10.0567 15.7828 3 
25.836 8.6193 14.3491 3 
28.7085 8.61983 14.3488 3 
1.4322 12.9279 12.9137 3 
1.43184 15.7993 12.914 3 
1.43342 12.9301 15.7814 3 
1.43238 15.8004 15.783 3 
2.86874 14.3646 14.3479 3 
4.30457 12.9282 12.9136 3 
4.30412 15.7995 12.914 3 
7.17595 12.9278 12.9139 3 
7.17565 15.7993 12.9142 3 
5.74091 14.3645 14.3481 3 
4.30512 15.8008 15.783 3 
4.30671 12.9302 15.7812 3 
7.17723 12.9287 15.7829 3 
7.17649 15.8001 15.784 3 
11.4809 14.3626 14.3502 3 
10.0461 12.9272 12.9145 3 
10.046 15.7985 12.9147 3 
8.61139 14.3635 14.3492 3 
10.0462 12.9273 15.785 3 
10.0461 15.7985 15.7856 3 
12.9156 12.9269 12.9148 3 
15.7857 12.9267 12.9147 3 
12.9158 15.7978 12.915 3 
15.7859 15.7974 12.915 3 
14.3506 14.3622 14.3503 3 
12.9156 12.9267 15.7857 3 
15.7853 12.9268 15.7852 3 
12.9157 15.7975 15.7863 3 
15.7858 15.7972 15.7862 3 
18.6565 12.9265 12.9145 3 
18.6565 15.7974 12.9148 3 
18.6561 12.9268 15.7846 3 
18.6562 15.7976 15.7854 3 
17.221 14.362 14.35 3 
20.0918 14.3624 14.3494 3 
21.5278 12.9266 12.9143 3 
21.5277 15.7977 12.9146 3 
24.3996 12.9269 12.9142 3 
24.3994 15.7982 12.9144 3 
21.527 12.9275 15.7835 3 
21.5272 15.7984 15.7846 3 
24.3991 15.799 15.784 3 
24.3989 12.9283 15.7828 3 
22.9633 14.3629 14.349 3 
28.7079 14.3641 14.3482 3 
27.2718 12.9274 12.914 3 
27.2715 15.7987 12.9142 3 
25.8354 14.3635 14.3486 3 
27.2718 12.9292 15.7821 3 
27.2715 15.7998 15.7835 3 
1.43157 18.6693 12.9146 3 
2.8675 20.1042 14.3501 3 
2.86796 17.2349 14.3491 3 
1.43172 18.6694 15.7851 3 
5.73988 17.235 14.3493 3 
4.30352 18.6696 12.9146 3 
7.17486 18.6695 12.9148 3 
5.73897 20.1044 14.3503 3 
4.30367 18.6697 15.7852 3 
7.17494 18.6696 15.7857 3 
11.4807 17.2333 14.3506 3 
11.4799 20.1032 14.3509 3 
10.0453 18.6689 12.9151 3 
8.61074 17.2343 14.3499 3 
8.60971 20.1041 14.3507 3 
10.0452 18.6687 15.7863 3 
14.35 20.1024 14.3508 3 
12.9153 18.668 12.9152 3 
15.7856 18.6674 12.9151 3 
12.9153 18.6678 15.7867 3 
15.7856 18.6673 15.7865 3 
14.3506 17.2326 14.3508 3 
20.0919 20.1023 14.3503 3 
18.6564 18.6675 12.915 3 
17.221 17.2325 14.3505 3 
18.6563 18.6674 15.7861 3 
17.2206 20.1021 14.3505 3 
20.0919 17.2328 14.3501 3 
21.5277 18.6678 12.9149 3 
24.3995 18.6683 12.9148 3 
22.9634 17.2333 14.3498 3 
21.5277 18.6679 15.7858 3 
24.3995 18.6684 15.7855 3 
22.9637 20.1028 14.3502 3 
25.8354 17.2339 14.3495 3 
27.2715 18.6688 12.9147 3 
25.8356 20.1032 14.3501 3 
28.7076 17.2344 14.3492 3 
28.7076 20.1037 14.3501 3 
27.2715 18.6689 15.7853 3 
1.43155 21.5387 12.9148 3 
1.43168 24.4086 12.9146 3 
1.43162 21.5385 15.7856 3 
1.43217 24.408 15.7846 3 
2.86753 22.9736 14.35 3 
4.30304 24.409 12.9148 3 
7.17379 24.4091 12.915 3 
4.30316 21.539 12.9149 3 
7.17416 21.5391 12.9151 3 
4.30312 21.539 15.7859 3 
7.17404 21.5391 15.7864 3 
4.3033 24.4087 15.7854 3 
7.17375 24.4092 15.7862 3 
5.73862 22.974 14.3505 3 
10.044 24.4087 12.9151 3 
10.0445 21.5386 12.9153 3 
8.6091 22.9739 14.3508 3 
10.0444 21.5387 15.7866 3 
10.044 24.4089 15.7864 3 
11.4791 22.9732 14.3508 3 
12.9138 24.4081 12.9149 3 
15.7848 21.5371 12.9149 3 
12.9145 21.5377 12.9152 3 
12.9144 21.5377 15.7865 3 
15.7847 21.5369 15.7859 3 
12.9136 24.4079 15.7858 3 
14.3489 22.9722 14.3501 3 
15.784 24.4073 12.9144 3 
15.7831 24.4064 15.7843 3 
18.656 21.537 12.9147 3 
18.6554 24.407 12.9142 3 
18.6558 21.5367 15.7855 3 
18.6543 24.4057 15.7833 3 
17.2197 22.9715 14.3495 3 
20.0915 22.9716 14.3493 3 
22.9637 22.9721 14.3494 3 
21.5278 21.5373 12.9147 3 
24.3997 21.5377 12.9147 3 
21.5275 24.4073 12.9141 3 
24.3997 24.4078 12.9143 3 
21.5277 21.5371 15.7853 3 
24.3997 21.5376 15.7854 3 
24.3998 24.4067 15.7836 3 
21.527 24.406 15.7833 3 
27.2717 21.5382 12.9148 3 
27.2718 24.4082 12.9144 3 
28.7079 22.9731 14.3498 3 
27.2718 21.5381 15.7854 3 
27.2723 24.4074 15.7841 3 
25.8358 22.9726 14.3495 3 
2.86766 25.8439 14.3495 3 
1.43157 27.2797 12.9143 3 
1.4325 27.2788 15.7836 3 
4.30298 27.2798 12.9145 3 
7.17394 27.2797 12.9147 3 
5.73854 25.8443 14.3501 3 
4.30339 27.2795 15.7847 3 
7.17422 27.2795 15.7854 3 
8.60904 25.8442 14.3504 3 
11.4788 25.8439 14.3504 3 
10.0441 27.2796 12.9149 3 
10.0441 27.2797 15.7859 3 
15.7837 27.2787 12.9141 3 
12.9137 27.2793 12.9147 3 
12.9134 27.2792 15.7853 3 
15.7824 27.2778 15.7833 3 
14.3483 25.843 14.3495 3 
18.655 27.2783 12.9138 3 
20.0907 25.8419 14.3481 3 
17.2186 25.842 14.3484 3 
18.6528 27.2762 15.7815 3 
24.3996 27.279 12.9141 3 
21.5272 27.2785 12.9139 3 
21.526 27.2764 15.7817 3 