ITEM: TIMESTEP
60000
ITEM: NUMBER OF ATOMS
2001
ITEM: BOX BOUNDS pp pp pp
0.0000000000000000e+00 2.8712000000000000e+01
0.0000000000000000e+00 2.8712000000000000e+01
0.0000000000000000e+00 2.8712000000000000e+01
ITEM: ATOMS x y z 
1.31648 1.5484 1.32258 
2.72735 3.00119 2.85562 
2.74949 0.0712543 2.87066 
2.83577 2.83852 0.0862035 
5.70331 2.9421 0.106117 
4.1981 1.45213 1.63385 
7.12329 1.44651 1.51216 
5.6419 2.88902 2.88333 
5.6134 0.104004 0.0514334 
9.89871 1.41909 1.35848 
8.66398 2.86112 2.89334 
11.3784 2.85356 2.85402 
8.4393 2.9643 0.0897969 
11.5256 2.77609 0.107579 
8.60296 0.103896 2.75126 
11.5366 0.02507 0.120758 
12.9242 1.37296 1.6242 
15.9946 1.34387 1.39932 
14.6005 3.0241 2.92195 
14.4914 2.79472 0.223723 
18.5651 1.44596 1.34139 
17.2742 2.77714 2.84041 
20.1198 2.86907 2.77261 
20.4829 0.53182 2.0757 
17.1417 0.0446698 0.026792 
20.1713 2.76541 0.00662475 
22.8637 2.86323 3.05147 
24.4529 1.50758 1.27274 
22.9712 0.172491 2.72288 
22.0187 1.71948 1.08806 
28.6621 3.03431 2.84278 
27.2835 1.42886 1.44925 
25.6443 2.93237 2.82785 
25.9776 0.0911156 2.90564 
25.945 2.8444 0.000698918 
1.45182 4.2987 1.31371 
1.64061 7.08422 1.32317 
3.07455 5.74051 3.00004 
0.237773 5.84143 2.78965 
4.3854 4.30417 1.49993 
7.20064 4.31058 1.54873 
4.374 7.23925 1.55597 
7.26442 7.13392 1.421 
5.78956 5.79826 2.90803 
10.0232 4.51556 1.43652 
9.92619 7.34995 1.58451 
8.63948 5.80358 3.00912 
11.423 5.84483 2.78278 
11.4638 5.91005 0.0343901 
13.0109 4.36924 1.61973 
15.8689 4.28686 1.32836 
12.8748 7.14723 1.57576 
15.8321 7.13535 1.60667 
14.23 5.6852 3.04274 
14.3416 5.82456 0.24027 
18.6879 4.40715 1.27219 
18.6295 7.30798 1.4235 
17.3786 5.58881 2.82913 
20.0605 5.78213 2.61033 
24.2641 4.3947 1.40466 
21.6249 4.32592 1.46631 
21.6551 7.15131 1.47586 
23.0517 5.7562 2.86973 
24.5001 7.13044 1.49226 
27.2505 4.26688 1.40389 
27.4561 7.0877 1.40714 
26.0825 5.57416 2.9404 
25.7675 5.89397 0.172815 
2.84422 11.6723 0.184539 
1.5567 9.92073 1.48509 
2.93355 8.26415 2.94926 
2.84201 11.6076 2.96026 
0.129529 8.47474 2.92941 
0.0890384 11.3053 2.90785 
0.184458 11.467 0.153598 
4.14443 10.052 1.43747 
7.23196 10.188 1.58475 
5.69988 8.63924 2.7612 
5.65646 11.4525 2.87849 
5.74003 8.60317 0.150627 
5.67804 11.4319 0.171475 
8.47039 8.68469 0.165618 
8.48402 11.5011 0.0965539 
11.427 11.7193 0.164559 
9.96172 10.1513 1.50982 
8.50098 8.73814 2.8669 
11.4037 8.68964 2.92817 
8.50856 11.6501 2.91562 
11.4462 11.5959 2.86257 
11.4311 8.78703 0.0526319 
12.9257 10.0493 1.57102 
15.6598 9.95226 1.50765 
14.33 8.5094 2.93507 
14.445 11.4272 2.86247 
14.1548 8.64479 0.186555 
14.2813 11.465 0.199013 
18.5401 10.1552 1.42613 
17.2765 8.59058 2.97024 
20.0386 8.65841 2.85912 
17.1157 11.4668 2.92652 
19.9743 11.3943 2.76202 
17.1943 11.5586 0.123163 
17.1399 8.6488 0.098307 
20.1903 11.3777 0.0745313 
21.5006 10.0177 1.42382 
23.0924 8.42646 2.97552 
23.0187 11.3203 2.75214 
24.3617 10.0351 1.29523 
22.8711 11.6762 0.068453 
25.8132 8.43577 0.0535286 
27.3459 9.84844 1.42406 
25.935 8.57892 2.79941 
25.9205 11.6861 2.78069 
25.8504 11.3115 0.241689 
1.44573 12.9702 1.68086 
1.25542 15.6976 1.44747 
2.89727 14.3136 2.96431 
2.82161 14.3747 0.131244 
4.27298 15.9 1.41932 
4.23474 13.0695 1.4651 
7.2101 12.8671 1.42625 
7.05813 15.7555 1.37199 
5.82615 14.3159 2.89 
9.87131 12.951 1.58864 
9.78834 15.9353 1.37029 
8.48271 14.4463 2.96596 
11.3508 14.4744 2.89696 
11.4176 14.3613 0.221565 
12.9658 13.005 1.56966 
15.6741 12.8788 1.4916 
12.8388 15.8168 1.2597 
15.8447 15.7789 1.45632 
14.3071 14.4199 2.96075 
14.3267 14.5071 0.104646 
17.2698 14.3205 0.0710599 
18.6076 12.9999 1.46351 
18.6644 15.8278 1.4475 
17.1654 14.2957 2.859 
20.0799 14.0838 2.88955 
21.5048 12.907 1.47341 
21.5689 15.8003 1.41232 
23.0288 14.4313 2.79231 
24.4121 12.9677 1.49603 
24.4999 15.7174 1.28898 
28.688 14.4346 2.86892 
27.5124 12.9533 1.42972 
27.2014 15.7291 1.41906 
25.7986 14.2795 2.86186 
25.7814 14.2891 0.00934016 
1.59682 18.7224 1.46819 
2.50534 17.0647 3.00745 
2.77335 20.3221 2.62494 
0.128867 17.2161 2.92163 
0.0126939 19.9936 0.0474165 
4.13468 18.64 1.44936 
7.24627 18.7968 1.46979 
5.55658 17.2512 2.844 
5.59138 19.9175 2.86875 
11.4788 17.2767 0.0849215 
9.84968 18.824 1.33628 
8.45498 17.1938 2.96182 
11.4085 17.3561 2.889 
8.57906 20.1777 2.91526 
11.734 20.1085 2.77602 
11.3633 20.0474 0.0894623 
14.5384 17.2179 0.176116 
12.9725 18.6643 1.40982 
15.8049 18.828 1.46276 
14.2576 17.2103 2.95646 
14.2722 20.1531 2.77391 
17.1764 20.1555 0.0178571 
17.1657 17.2077 0.108713 
20.1433 20.0979 0.108865 
19.9813 17.2657 0.073092 
18.4778 18.7663 1.28657 
17.0997 17.3634 2.88978 
19.8338 17.2161 2.86615 
17.2606 20.0885 3.02403 
20.1363 19.9656 2.75655 
22.9323 20.0069 0.13204 
21.6178 18.5166 1.54226 
24.4912 18.8431 1.49584 
23.0617 17.2352 2.78957 
22.8589 20.0897 2.96977 
28.5735 20.1511 2.87817 
27.3593 18.6669 1.4796 
25.9157 17.1015 2.70063 
25.8369 20.0342 2.87077 
28.7005 17.1538 0.227877 
1.37792 21.6275 1.26913 
2.62602 22.8483 2.93079 
1.64051 24.1749 1.33209 
0.0440528 22.8488 2.87138 
4.37032 24.4374 1.52245 
4.44183 21.6809 1.35694 
7.15755 21.5699 1.6939 
5.75071 23.1056 2.88293 
7.27416 24.4576 1.26754 
5.7704 22.9877 0.143441 
9.96063 21.5587 1.45404 
8.53721 23.1135 2.88231 
11.3571 23.0871 2.7601 
9.99602 24.4329 1.49436 
11.3535 23.1807 0.00123101 
12.9515 21.5504 1.28252 
15.7707 21.521 1.47544 
14.3237 22.9639 2.72777 
15.7842 24.404 4.07827 
15.7428 24.342 1.60484 
12.8702 24.3217 1.3879 
20.2449 22.8974 0.122812 
17.1444 22.8796 0.0147722 
18.7629 21.3918 1.17527 
17.4789 22.9308 2.86711 
20.1649 23.1071 2.94678 
18.7691 24.2604 1.25482 
21.6418 21.5348 1.42637 
24.3328 21.4608 1.44796 
23.0771 22.8511 2.88413 
24.4919 24.3745 1.40127 
21.5245 24.2474 1.52908 
27.3413 21.5134 1.49542 
25.8628 22.9735 2.75254 
27.3825 24.3839 1.30901 
0.0129249 28.6875 2.89184 
1.43513 27.3329 1.42604 
2.83412 25.8599 3.02285 
0.159253 25.7953 2.79659 
2.92471 25.8718 0.101164 
5.71998 28.7 3.04252 
4.1482 27.4661 1.41199 
7.07959 27.4037 1.3202 
5.70439 25.9004 2.74196 
11.459 28.6089 2.79138 
9.95027 27.2389 1.41859 
8.44341 25.8927 2.72675 
11.5774 25.9264 2.91724 
11.4649 25.8801 0.0153151 
14.3512 28.4716 3.02525 
14.4068 28.5511 0.123062 
12.9522 27.0656 1.46647 
15.6929 27.1741 1.58918 
14.4849 25.7812 2.92421 
19.483 27.9558 3.51924 
17.4229 28.5616 2.92538 
18.8826 27.1177 1.20371 
17.2212 26.0684 2.90245 
20.0971 25.7209 2.7648 
17.1498 25.6436 0.0996825 
21.55 27.1187 1.30107 
23.011 26.0147 2.71598 
24.4675 27.3385 1.36888 
22.89 25.7828 0.0313535 
27.227 27.3273 1.3934 
25.9284 25.9918 2.95793 
1.33654 1.71938 4.16166 
1.52423 1.32285 7.13367 
2.80181 2.81739 5.73975 
0.0420071 2.79629 5.94792 
0.110282 0.0892877 5.68226 
2.85424 0.0866394 5.71886 
4.17397 1.40664 4.33585 
7.02288 1.57822 4.23035 
4.37506 1.51314 7.20166 
7.11049 1.63756 7.14473 
5.75061 2.91406 5.78316 
10.0136 1.3921 4.3187 
10.1424 1.28749 7.1192 
8.5811 2.76619 5.8755 
11.5287 2.96628 5.69125 
13.0295 1.51259 4.4212 
15.7613 1.37556 4.20038 
13.0005 1.57405 7.20318 
15.7722 1.46844 7.12012 
14.4335 2.93769 5.6936 
18.8157 1.52685 4.2969 
18.6777 1.55365 7.30609 
17.3416 2.90646 5.59663 
20.216 2.91129 5.80735 
17.2941 0.118492 5.89712 
21.4759 1.36623 4.42267 
24.2937 1.44226 4.2004 
21.4058 1.20345 7.29864 
24.3199 1.44293 7.08504 
22.9901 2.79867 5.8109 
27.3347 1.66248 4.34399 
27.0721 1.31185 7.35884 
25.9232 2.76557 5.75815 
1.44865 4.39354 4.3471 
1.36956 7.16214 4.50618 
1.46995 4.22033 7.20316 
1.34843 7.12886 7.48716 
2.87243 5.7384 5.93958 
0.0275652 5.70187 5.88488 
4.37727 7.22986 4.43223 
7.09559 4.29741 4.52572 
4.3624 4.29855 4.36877 
7.07928 7.28874 4.24373 
7.24215 4.32999 7.07254 
4.19578 7.20793 7.36341 
4.25133 4.25051 7.32288 
5.6502 5.83342 5.87426 
7.01277 7.15227 7.27217 
10.1412 4.27455 4.34442 
10.143 7.2142 4.50658 
10.0705 4.28672 7.18144 
8.49619 5.7386 5.65386 
9.98293 7.08906 7.14008 
11.6013 5.57756 5.77178 
12.9117 4.44198 4.22424 
15.8781 4.41611 4.25343 
12.9338 7.09776 4.34108 
15.6062 7.23587 4.34249 
12.9583 4.41616 7.25579 
15.7988 4.31296 6.95871 
12.962 7.28761 7.11097 
14.3925 5.73714 5.72962 
15.7427 7.30793 7.09516 
18.7989 4.29841 4.24048 
18.7206 7.22003 4.28126 
18.5639 4.26206 7.17761 
17.2312 5.75111 5.58288 
18.5315 7.17883 7.20633 
19.9705 5.72564 5.73735 
21.4501 4.27324 4.38902 
21.537 7.02761 4.29942 
24.4796 7.1511 4.31438 
24.4295 4.53149 4.50502 
21.5338 4.52998 7.21355 
24.5914 4.33077 7.13803 
21.6353 7.0836 7.13052 
23.084 5.69893 5.82955 
27.3105 4.20076 4.39981 
27.3526 7.06868 4.40291 
24.6825 7.27663 7.2599 
27.2121 4.20296 7.26584 
26.111 5.77428 6.01177 
27.4527 7.27695 7.25312 
1.6153 9.93022 4.27277 
1.4658 10.1655 7.14136 
2.68825 8.59525 5.85862 
2.84972 11.4865 5.8199 
0.0369966 8.69107 5.7243 
0.143536 11.56 5.70026 
4.27713 10.1975 4.42742 
7.22362 10.0657 4.4208 
4.33049 9.86779 7.08598 
5.76187 8.62074 5.80872 
7.15467 10.1335 7.33775 
5.74875 11.4214 5.95898 
10.0698 10.2067 4.40849 
8.51941 8.58717 5.7903 
10.0742 10.0709 7.13383 
11.5445 8.64241 5.73526 
8.67198 11.3149 5.67863 
11.5087 11.4687 5.76996 
13.0008 10.2026 4.24126 
15.8678 10.1137 4.26071 
12.9983 10.1859 6.95242 
14.2831 8.70157 5.56378 
15.8655 9.87564 7.101 
14.383 11.7289 5.69565 
18.7827 10.1283 4.34055 
17.4004 8.72016 5.70201 
18.6208 10.0052 7.28393 
19.9606 8.53118 5.73222 
17.3264 11.3683 5.87957 
20.1919 11.4666 5.93213 
21.4545 10.0181 4.35931 
24.4517 10.0747 4.16929 
21.4616 9.97232 7.16776 
22.9018 8.66965 5.72132 
22.9797 11.4695 5.75243 
24.5061 10.0398 7.06345 
27.3455 10.0004 4.2209 
25.9757 8.64442 5.65869 
27.476 10.1402 6.94706 
25.8474 11.536 5.50429 
1.54057 13.0041 4.47731 
1.3402 15.8332 4.50456 
1.48866 13.1263 7.17104 
1.52041 15.7859 7.24118 
2.88563 14.2683 5.80481 
0.00681216 14.3172 5.76744 
4.43721 12.9649 4.41652 
4.24609 15.7832 4.35761 
7.04914 12.8718 4.41921 
6.95516 15.8138 4.4035 
4.34489 12.8786 7.25956 
4.1509 15.5995 7.11602 
7.29348 12.7351 7.34599 
5.77064 14.3974 5.79053 
7.07358 15.6835 7.18614 
9.94818 12.8439 4.37023 
9.92184 15.824 4.32276 
9.95999 12.8525 7.38185 
8.47296 14.2469 5.74823 
9.99244 15.5498 7.40864 
11.3694 14.2808 5.86792 
12.7178 13.0703 4.31745 
15.7666 12.9953 4.34077 
12.7282 15.6663 4.22888 
15.8765 15.7473 4.19463 
12.7892 12.8404 7.15167 
15.7496 12.7993 7.27858 
12.8093 15.7709 7.12474 
14.2171 14.3343 5.76292 
15.7505 15.6524 7.11432 
18.563 12.9119 4.35075 
18.6759 15.8623 4.33398 
18.7205 13.0184 7.17688 
17.2465 14.3617 5.68061 
18.5614 15.9721 7.12633 
20.0694 14.3404 5.75301 
21.5421 12.6963 4.21183 
21.4289 15.6641 4.29501 
24.3036 12.8753 4.29962 
24.3314 15.6921 4.35995 
21.5718 12.8424 7.13313 
21.4605 15.8523 7.06486 
23.0346 14.2992 5.65001 
24.3088 12.9789 7.31451 
24.3 15.6654 7.29752 
27.3019 12.8945 4.34844 
27.201 15.7046 4.25493 
27.2822 12.883 7.09181 
25.8096 14.3704 5.84773 
27.316 15.8484 7.11573 
1.35169 18.6682 4.3263 
1.35234 18.8469 7.03472 
2.837 17.3933 5.84698 
2.8778 20.1441 5.64823 
0.036392 17.2904 5.77985 
4.1393 18.6754 4.2203 
7.14228 18.6206 4.49036 
4.31782 18.6786 7.12548 
5.50426 17.1119 5.66609 
7.1197 18.3657 7.16088 
5.63492 20.0329 5.80015 
9.98731 18.7254 4.3096 
8.56312 17.1731 5.7116 
9.85427 18.6993 7.16444 
11.3105 17.169 5.90061 
8.55018 20.1056 5.67375 
11.521 20.2784 5.80101 
12.847 18.7085 4.32335 
15.5659 18.5426 4.26777 
12.756 18.7891 7.20234 
14.2076 17.3269 5.67223 
15.8612 18.6987 7.03742 
14.3258 20.1396 5.78538 
18.6562 18.6003 4.19917 
17.1317 17.2831 5.62475 
18.6076 18.6175 7.19908 
20.0444 17.235 5.56979 
17.0982 19.9847 5.47767 
20.0852 20.0572 5.76426 
21.3696 18.6609 4.14836 
24.5009 18.6126 4.2572 
21.4973 18.7473 7.18579 
22.9348 17.3627 5.75174 
23.108 20.1612 5.65154 
24.2932 18.5801 7.08926 
27.262 18.5551 4.36239 
28.5461 20.1691 5.80999 
25.899 17.2999 5.73471 
27.3324 18.6657 7.28351 
25.7474 19.9901 5.66204 
1.34075 21.6165 4.36497 
1.41878 21.5598 7.17304 
2.95593 22.8845 5.53845 
1.51679 24.3438 7.36202 
0.160978 23.0414 5.78518 
4.43328 21.5126 4.24162 
4.4155 24.3939 4.26765 
7.01022 21.6238 4.41631 
6.89443 24.3945 4.28934 
4.1757 21.621 7.16629 
7.09589 21.4886 7.26689 
5.69933 22.8662 5.83245 
7.16999 24.1657 7.17883 
4.20085 24.4145 7.13293 
10.0784 21.5293 4.43482 
9.99962 24.5645 4.3384 
10.0463 21.4119 7.19641 
8.43793 22.9743 5.73139 
11.546 22.9589 5.66627 
10.2249 24.1865 7.00474 
13.1624 21.7015 4.30771 
15.8181 21.5609 4.12435 
12.9714 24.3575 4.15425 
12.9096 21.7076 7.26654 
15.7954 21.523 7.16829 
14.6257 22.9867 5.66106 
15.7952 24.1019 7.50064 
13.0275 24.3066 7.26021 
18.6977 21.4473 4.2128 
18.7517 24.3664 4.3379 
18.8096 21.3486 7.07295 
17.3298 22.8648 5.87305 
20.0883 22.8821 5.79046 
18.6921 24.3071 7.18329 
21.5668 21.5979 4.23758 
24.2936 21.4524 4.35872 
21.5354 24.562 4.37896 
24.3596 24.5181 4.29746 
21.6815 21.7206 7.04334 
23.0358 23.1053 5.69179 
24.5501 24.2976 6.99789 
24.4915 21.587 7.04079 
27.2468 21.6095 4.2194 
27.3883 24.3659 4.17041 
27.1566 21.5232 7.12095 
26.0837 22.9285 5.69251 
27.1917 24.5163 7.14459 
1.49599 24.6852 4.37774 
1.50396 27.2304 4.49762 
1.37316 27.214 7.2426 
2.85445 25.8482 5.75711 
4.30199 27.377 4.38737 
7.09923 27.2884 4.17183 
5.7288 28.7115 5.77326 
4.20616 27.3898 7.13575 
5.67621 25.8234 5.73258 
7.23306 27.3992 7.06262 
9.84952 27.2703 4.1886 
11.4094 28.6737 5.53954 
8.62392 28.6798 5.70586 
8.59653 25.8997 5.72136 
10.0816 27.1591 7.09148 
11.5353 25.606 5.54115 
12.8531 27.202 4.34814 
15.8446 27.2168 4.46787 
14.2724 28.638 5.86144 
12.8168 27.1169 7.01271 
14.4457 25.5556 5.80105 
15.6456 27.1944 7.22193 
18.2463 26.7543 4.88752 
20.1053 28.616 5.84786 
17.0007 25.4194 5.9426 
18.66 27.2182 7.42071 
20.1829 26.0189 5.62105 
21.6309 27.3664 4.31269 
24.3664 27.4271 4.15714 
22.9646 28.6894 5.66849 
21.4597 24.6826 7.02767 
21.589 27.3521 7.31059 
23.0716 25.9538 5.55041 
24.4871 27.3863 7.15641 
27.4673 27.3396 4.31705 
25.8945 28.6845 5.6294 
28.6972 25.9378 5.82214 
26.0842 25.8721 5.59617 
27.3263 27.4235 7.0829 
2.90054 2.78439 8.68299 
0.210424 2.87624 8.72779 
1.29743 1.29776 10.1446 
2.7064 2.71477 11.4759 
1.27905 4.09482 10.2329 
2.72176 0.0315257 11.34 
5.87586 2.83378 8.67047 
5.78 0.12045 8.63952 
4.31577 1.35769 10.0993 
7.41554 1.36421 10.0341 
5.77747 2.80383 11.478 
4.35427 4.08333 10.2076 
8.50711 2.92961 8.52449 
11.6126 2.84945 8.58739 
10.2927 1.38379 9.62263 
8.71296 2.91701 11.3213 
11.3594 2.95705 11.5067 
8.70209 0.122783 11.3434 
14.3612 2.95654 8.55065 
14.3754 0.102806 8.48434 
12.9307 1.41367 9.90288 
15.6016 1.6285 9.97382 
14.4604 2.81061 11.6226 
17.0587 2.78904 8.65005 
20.0914 3.20742 8.533 
20.1847 0.00815371 11.364 
18.6768 1.50725 10.0672 
17.2816 2.84707 11.6206 
20.1292 2.83661 11.668 
23.0014 2.96054 8.55566 
23.0022 0.167896 8.64898 
21.554 1.54349 10.075 
23.1189 2.95579 11.515 
24.4709 1.60808 9.92809 
25.8799 2.95823 8.61858 
28.6169 2.75329 11.6594 
27.3013 1.52685 10.0109 
25.6764 2.90396 11.4546 
28.4113 0.0183242 11.359 
2.6235 5.52765 8.76665 
1.36839 7.08609 9.97661 
2.88448 5.68263 11.5877 
5.77949 5.72715 8.68707 
4.21345 6.89752 10.1686 
7.23439 4.30676 10.06 
7.26493 7.12894 9.85383 
5.7826 5.53964 11.426 
8.77842 5.80751 8.54481 
11.5621 5.73695 8.68614 
10.0463 4.37616 9.97197 
9.98732 7.28256 10.1488 
8.67475 5.77847 11.4459 
11.5402 5.87563 11.5965 
14.3978 5.70147 8.56501 
12.8958 4.23934 10.2396 
15.7093 4.17332 10.2675 
13.0371 7.44104 9.98874 
15.7437 7.17294 10.1412 
14.2885 5.67297 11.4234 
16.9838 5.68335 8.59603 
20.0508 5.77548 8.54613 
18.5611 4.36108 10.2243 
18.5242 7.36405 10.0755 
17.24 5.77413 11.4889 
20.1131 5.75265 11.3875 
23.0824 5.68133 8.53241 
21.7625 4.34482 10.1791 
21.6905 7.19925 9.92005 
22.9812 5.86707 11.509 
24.4207 7.22509 10.1912 
24.4148 4.48823 10.2467 
28.5946 5.69623 8.85997 
25.8371 5.78634 8.71438 
28.4869 5.50786 11.5523 
27.1917 4.18279 9.99185 
27.1129 7.33731 10.0213 
25.9628 5.73026 11.4818 
2.79856 8.60102 8.6121 
2.97493 11.3685 8.52625 
1.5142 10.0499 10.0892 
2.85754 8.62217 11.2882 
2.96861 11.5137 11.4611 
5.64238 8.66756 8.72404 
5.65346 11.4015 8.69743 
4.23863 9.90581 9.9668 
6.98553 10.1795 10.0064 
5.79004 8.50549 11.4407 
5.76153 11.391 11.496 
8.619 8.61004 8.55276 
11.4409 8.50387 8.53311 
8.51513 11.4138 8.8647 
11.5376 11.4186 8.65602 
11.5284 8.71654 11.4785 
9.98472 10.049 10.0605 
8.51015 8.88568 11.4118 
8.56317 11.4587 11.6219 
11.5271 11.6704 11.2774 
14.3941 8.53358 8.52366 
14.2412 11.5261 8.62904 
12.905 10.0377 10.054 
15.779 10.1437 10.0206 
14.3273 8.61526 11.4297 
14.5558 11.5441 11.4975 
17.1135 8.66675 8.86473 
20.0104 8.4285 8.62767 
17.4891 11.4646 8.57243 
20.2539 11.2497 8.63197 
18.7322 10.0156 10.1841 
16.997 8.61962 11.4243 
20.1007 8.48171 11.4347 
17.0734 11.3788 11.46 
20.1228 11.5523 11.4168 
23.0924 8.61015 8.46223 
22.9644 11.6045 8.51523 
21.7107 9.90302 9.92917 
22.9535 8.78417 11.4745 
23.1451 11.5124 11.4333 
24.5094 10.1307 9.82895 
28.7077 8.66545 8.66399 
28.67 11.43 8.55162 
25.9422 8.69587 8.52347 
25.7555 11.6784 8.48071 
28.6759 11.4756 11.4778 
28.6412 8.75802 11.4851 
27.1793 10.1661 10.1063 
25.6835 8.71121 11.4151 
25.7233 11.4835 11.3246 
2.93153 14.3915 8.70349 
1.48876 12.8103 9.91049 
1.43144 15.8791 10.0225 
3.0343 14.3625 11.3834 
5.61681 14.2174 8.48978 
4.2874 12.8496 10.2924 
4.32535 15.8748 10.2149 
7.03353 12.8591 10.1318 
7.00601 15.8038 9.99744 
5.84781 14.3644 11.4567 
8.43734 14.2971 8.7794 
11.6117 14.2428 8.67163 
10.0715 12.8957 10.1014 
9.89557 15.9114 10.0475 
8.61228 14.5434 11.4774 
11.5256 14.5428 11.3975 
14.2906 14.4274 8.67372 
13.0001 13.0029 10.1978 
15.9032 12.8187 9.87538 
13.0406 15.8114 10.1022 
15.77 15.8609 10.149 
14.4643 14.2941 11.4164 
17.2305 14.3257 8.45464 
20.2157 14.3273 8.52612 
18.8633 13.0553 9.93465 
18.6389 15.9134 10.0539 
17.3563 14.1286 11.3441 
20.2497 14.3506 11.6019 
22.7754 14.4565 8.70148 
21.5872 12.9324 10.1819 
21.6264 15.9417 10.0595 
22.9178 14.2727 11.3999 
24.2272 15.8946 10.1926 
28.6256 14.312 8.53494 
26.0296 14.4533 8.52972 
24.6137 13.0423 9.93572 
28.6635 14.2488 11.2191 
27.3215 12.7572 9.99575 
27.3162 15.9831 9.89144 
25.8509 14.5025 11.4719 
2.85168 17.3298 8.8294 
2.99142 20.204 8.48066 
1.59311 18.7069 10.1656 
2.78664 17.0602 11.6365 
2.96647 20.1643 11.4514 
0.0995015 20.3682 11.4422 
0.0805899 17.1332 11.3407 
5.65197 17.1289 8.62974 
5.68753 20.0799 8.59863 
4.44658 18.6452 10.0685 
7.10961 18.6463 9.98346 
5.9677 17.1475 11.6467 
5.75446 20.1461 11.4145 
8.65609 17.1733 8.6037 
11.6465 17.2167 8.58725 
8.44089 20.1618 8.70967 
11.6182 20.2868 8.81395 
9.94543 18.5438 9.89109 
8.58936 17.2191 11.5162 
11.6009 17.3204 11.3502 
8.47516 19.8632 11.4805 
11.4756 20.0054 11.4774 
14.3133 17.2162 8.46001 
14.4289 19.9516 8.51315 
12.9946 18.7697 10.079 
15.7475 18.744 9.87368 
14.4637 17.3181 11.4039 
14.547 20.0893 11.338 
17.2052 17.1803 8.5296 
19.9871 17.2126 8.45991 
17.3416 20.1609 8.67508 
20.1384 20.3107 8.59439 
18.7943 18.8032 9.85795 
17.4193 17.2603 11.5761 
20.1641 17.3526 11.5117 
17.1717 20.3297 11.5676 
20.0879 19.9916 11.5666 
23.1458 17.3178 8.68855 
22.8035 20.0667 8.42122 
21.4814 18.6927 9.99572 
23.0025 17.4426 11.5007 
22.9053 20.1033 11.3209 
24.4729 18.7432 10.0686 
28.6716 19.9816 8.7284 
28.6847 17.0765 8.5152 
25.7228 17.219 8.58223 
25.7 20.1275 8.55797 
27.3066 18.7256 10.11 
25.8329 17.3483 11.485 
25.8005 20.1956 11.3898 
2.87914 23.2139 8.6419 
1.35563 24.4702 9.84408 
1.41146 21.7533 9.89516 
2.67718 22.9969 11.4227 
0.0420765 23.1214 11.3744 
5.70269 23.0877 8.79276 
4.29872 24.3761 10.0718 
7.24015 24.4617 9.95519 
4.24065 21.5822 9.96642 
7.09617 21.5876 10.1474 
5.63221 22.8889 11.5801 
8.69122 22.8672 8.63508 
11.3304 22.8932 8.70782 
9.98564 24.3369 10.1036 
9.84774 21.3541 10.079 
8.64711 22.9669 11.5147 
11.6137 22.9223 11.557 
14.2849 23.0123 8.91371 
15.7447 24.4165 10.1428 
12.9206 24.3678 10.1335 
14.6052 23.1184 11.6756 
13.0043 21.5022 10.2806 
15.9306 21.629 10.0174 
17.3564 22.831 8.50898 
20.3245 23.1742 8.49463 
20.024 22.9918 11.4336 
17.3205 23.0419 11.4543 
18.6631 24.3268 9.82127 
18.6889 21.5782 10.1221 
22.9654 23.0304 8.45532 
24.4728 21.6879 9.96118 
22.9636 22.9691 11.3735 
24.4355 24.2241 9.84836 
21.539 24.4557 10.0111 
21.5388 21.5256 10.0872 
28.628 22.9477 8.45465 
26.0131 23.0634 8.46385 
27.2895 24.4735 9.94674 
26.082 22.9659 11.3187 
27.2794 21.5393 9.96774 
2.85152 28.5892 8.73589 
3.00254 25.7518 8.67513 
2.86564 25.8582 11.4743 
1.28982 27.2094 9.9824 
5.78854 25.842 8.52312 
5.72517 25.83 11.3915 
4.365 27.2356 10.1241 
5.79952 28.6983 11.5503 
7.29055 27.4761 9.9984 
11.578 28.5281 8.64632 
8.72133 28.6134 8.51662 
8.61173 25.7365 8.33421 
11.446 25.5545 8.51011 
10.1907 27.0998 10.0167 
8.57143 25.8932 11.2933 
11.3156 25.6862 11.4619 
11.4327 28.7031 11.4399 
14.4124 25.6481 8.61302 
12.8466 27.1105 9.93297 
15.5487 27.3649 10.0596 
14.0127 28.5254 11.5178 
14.1807 25.7013 11.6413 
17.1949 28.6833 8.80448 
19.9659 28.7039 8.81562 
17.1306 25.9092 8.60341 
20.2026 26.0009 8.66654 
20.0929 25.7859 11.3563 
18.4602 27.2556 10.2318 
17.1311 25.714 11.222 
17.1618 28.5989 11.5744 
23.0919 25.8412 8.41301 
24.2661 27.2988 10.0004 
22.9169 28.6382 11.4665 
23.0006 25.7579 11.3748 
21.7101 27.0702 10.0215 
28.6601 28.6096 8.68456 
25.7596 28.5744 8.59553 
28.6097 25.7939 8.4849 
25.73 25.8861 8.54591 
28.687 25.7264 11.4746 
25.7844 25.6637 11.4021 
27.1908 27.0667 10.0629 
25.6452 28.6932 11.3392 
1.38465 1.29646 12.834 
3.01819 0.15231 14.2848 
2.92908 2.99706 14.3178 
1.43316 1.35955 15.731 
4.28293 1.32327 12.6877 
7.22901 1.36736 12.8749 
7.07972 4.06491 12.9118 
5.66643 0.167538 14.2789 
5.52463 2.84722 14.3098 
4.3937 1.49854 15.8365 
7.35772 1.46797 15.733 
10.0623 1.3315 12.7431 
11.4045 2.78616 14.3374 
9.95143 1.47869 15.8454 
8.59677 2.91467 14.4312 
12.8748 1.27191 12.8208 
15.7092 1.35736 12.968 
12.9772 1.31173 15.8226 
15.6911 1.48024 15.8186 
14.1727 2.83417 14.498 
18.8454 1.32739 12.8897 
18.6747 1.44848 15.9515 
20.1121 2.75537 14.4529 
17.1877 2.82868 14.379 
17.2003 0.0559918 14.4179 
21.5633 1.41686 12.8373 
24.4156 1.4437 12.8692 
22.8095 2.74823 14.314 
21.4233 1.31926 15.7584 
24.26 1.35679 15.6543 
27.0644 1.40545 12.9681 
28.244 3.10127 14.2475 
28.6446 0.0763448 14.2915 
25.7189 2.89066 14.309 
27.0866 1.63031 15.5635 
25.7239 0.0251025 14.3614 
1.29522 4.19416 12.9437 
1.23451 7.15214 12.9028 
2.70302 5.60355 14.1364 
1.23391 4.24091 15.6745 
1.17599 7.32442 15.5793 
4.30134 4.22242 12.8493 
4.29465 7.10053 12.7832 
7.31926 7.20973 12.7821 
5.80297 5.62978 14.185 
4.24762 7.29583 15.7803 
4.1459 4.44824 15.6387 
7.19128 4.36913 15.7035 
7.22779 7.13057 15.7173 
8.71052 5.74216 14.1128 
9.9887 4.25442 12.926 
10.1136 7.17597 12.7183 
11.5217 5.83363 14.326 
10.0115 4.41587 15.8847 
10.0784 7.09194 15.7253 
12.8315 4.17694 13.0196 
15.8155 4.2142 13.0319 
12.9573 7.22475 13.0031 
15.9386 7.22424 12.9321 
14.4281 5.7795 14.3278 
12.8472 4.21274 15.7865 
15.6684 4.24242 15.664 
12.7046 7.19528 15.7293 
16.0414 7.20799 15.7714 
18.7808 4.25837 12.9162 
18.6929 7.28633 12.9783 
17.061 5.58121 14.2916 
20.0357 5.89824 14.2629 
18.725 4.37759 15.6745 
18.7097 7.2688 15.8283 
24.1847 4.52241 12.888 
21.6025 4.46827 12.868 
21.5225 7.20064 12.8246 
24.2646 7.1941 13.0514 
22.8227 5.79981 14.3261 
21.6475 4.35589 15.6224 
24.1697 4.27582 15.5334 
21.5306 7.22143 15.9905 
24.3165 7.2398 15.8449 
26.9394 4.22887 12.9819 
27.1749 7.20477 12.8143 
28.5546 5.77924 14.2709 
27.0831 4.15048 15.879 
27.4071 7.17323 15.7578 
25.8604 5.73219 14.5141 
1.4577 9.98825 12.8979 
2.88919 11.4369 14.2966 
2.81345 8.35892 14.2174 
0.0371947 11.5871 14.2035 
1.30821 9.95017 15.5255 
4.11184 9.89301 12.884 
7.09935 10.1458 12.9988 
5.55617 11.4988 14.271 
5.6892 8.56948 14.337 
4.31621 10.015 15.7298 
7.30007 10.0202 15.7238 
9.87853 10.1245 13.0011 
11.4116 8.60165 14.0912 
11.4761 11.683 14.3191 
8.66966 8.52792 14.3474 
10.0667 10.2407 15.6238 
8.54711 11.5522 14.4102 
12.921 10.2864 12.856 
15.8093 10.095 12.9385 
14.2476 8.732 14.4583 
12.9072 10.0825 15.7308 
15.8078 10.1576 15.7128 
14.3705 11.6669 14.3701 
18.6335 9.93861 12.8296 
20.1801 8.51932 14.3142 
20.1551 11.3172 14.1915 
17.4321 11.5884 14.274 
18.7426 9.95899 15.951 
17.241 8.73638 14.4042 
21.6154 10.0551 12.887 
24.3385 10.1994 12.8837 
22.9877 11.3597 14.3477 
23.0111 8.50976 14.3079 
21.6884 9.88064 15.8973 
24.4743 10.0453 15.4535 
27.1122 10.1941 12.8643 
25.7632 8.66079 14.246 
28.4855 8.60386 14.3296 
27.2223 10.2527 15.6979 
25.9085 11.4736 14.4281 
1.44398 12.968 12.7691 
1.26629 15.8435 13.1167 
2.85341 14.3443 14.3479 
1.2894 12.8771 15.7703 
1.5062 15.737 15.6422 
4.25496 12.916 12.8329 
4.3308 15.8665 12.7944 
7.16537 12.9145 12.8177 
7.27662 15.9496 13.0029 
5.65953 14.662 14.3179 
4.232 15.8151 15.8187 
4.23937 12.9462 15.6969 
7.06744 13.0136 15.626 
7.09125 15.7957 15.9095 
9.96268 12.8953 12.9431 
10.0175 15.7612 12.9795 
11.5236 14.2366 14.2278 
10.068 13.1053 15.6699 
9.9445 15.7576 15.7874 
8.56222 14.4155 14.3583 
12.8937 12.8751 12.9044 
15.9413 13.0699 12.8757 
13.0043 15.9309 12.7806 
15.8559 15.698 12.7209 
14.368 14.2835 14.3091 
12.9711 12.9582 15.7623 
15.8182 12.9668 15.8643 
12.7386 15.7509 15.7715 
15.7156 15.8026 15.7652 
18.8156 13.0052 12.9384 
18.8341 15.7084 12.9298 
18.6663 12.8373 15.9 
18.7449 15.8581 15.7461 
20.1928 14.4046 14.4441 
17.3897 14.2646 14.4517 
21.67 12.8828 12.9471 
21.6933 15.9131 12.7824 
24.5106 12.8722 12.8563 
24.388 15.7966 12.9532 
21.5541 12.7732 15.8043 
21.6201 15.6883 15.7143 
24.3939 15.864 15.6574 
24.3975 13.0411 15.6855 
22.9971 14.3601 14.4807 
27.2914 12.927 12.7767 
27.2323 15.8606 12.9396 
28.6439 14.2208 14.2486 
25.7353 14.4739 14.2279 
27.1458 12.7891 15.7796 
27.3112 15.8744 15.8834 
1.60194 18.7855 12.7076 
0.0435338 20.2512 14.2227 
2.85419 17.3656 14.3063 
2.81911 20.0285 14.2978 
0.0867527 17.2167 14.4058 
1.44265 18.7 15.7076 
5.71173 17.3635 14.2483 
4.15747 18.6573 12.745 
7.1105 18.8785 12.9034 
5.54001 20.1846 14.3431 
4.28274 18.67 15.7217 
7.264 18.6745 15.7605 
10.1179 18.5885 12.8695 
8.64611 17.1955 14.302 
11.3793 20.1684 14.1703 
11.4922 17.1041 14.296 
8.72528 19.8449 14.2487 
10.1669 18.7879 15.7398 
14.4381 17.2061 14.1883 
12.8988 18.6492 13.0512 
15.8697 18.5915 12.9929 
12.807 18.7237 15.7031 
15.8866 18.5889 15.8938 
14.29 20.1319 14.4657 
18.62 18.6456 13.112 
17.2343 17.1443 14.3288 
20.2889 17.1901 14.3865 
18.8574 18.7582 15.9071 
17.3902 20.1752 14.54 
20.0368 20.1397 14.3681 
22.9699 20.1479 14.1966 
21.553 18.8827 12.9172 
24.4806 18.7043 12.8777 
22.9556 17.4512 14.5081 
21.6219 18.7707 15.9153 
27.4121 18.7392 12.9114 
26.0038 20.1746 14.2293 
25.8841 17.3065 14.4493 
24.6287 18.7124 15.8197 
27.329 18.7356 15.7786 
1.49267 21.6875 12.823 
1.47957 24.381 12.8914 
1.40951 21.5348 15.7304 
1.30336 24.5955 15.8909 
2.73488 23.1278 14.4312 
0.0528479 23.2111 14.474 
5.65846 23.1481 14.2731 
4.12899 24.4749 13.0013 
7.10151 24.4744 12.9528 
4.25509 21.5249 12.8512 
7.14676 21.715 12.8855 
4.13352 21.4174 15.6432 
7.19976 21.4836 15.6695 
4.22305 24.4543 15.8398 
7.3724 24.4114 15.8092 
10.074 24.3268 12.9564 
10.0891 21.4111 12.7458 
8.56158 22.928 14.242 
10.0222 21.5615 15.8533 
10.2334 24.2265 15.9827 
11.376 22.8853 14.397 
15.8745 24.2758 13.1851 
12.9073 24.392 12.9974 
15.8457 21.449 12.9501 
13.009 21.6181 12.8704 
12.765 21.6831 15.8327 
15.927 21.5904 15.8942 
12.8514 24.3748 15.7092 
16.0591 24.3666 15.7328 
14.2691 23.0019 14.5156 
17.5216 23.016 14.29 
18.7269 21.5997 12.8726 
18.6041 24.3607 12.7767 
20.0461 23.0422 14.3291 
18.7134 21.6963 15.8488 
18.7106 24.419 15.8794 
21.6129 21.698 12.8437 
24.3473 21.5124 12.7911 
21.6253 24.363 12.7802 
24.4111 24.2769 12.7803 
23.1807 22.9904 14.1814 
21.5265 21.7238 15.666 
24.4719 21.5919 15.7576 
24.4665 24.4236 15.7068 
21.5435 24.3945 15.7979 
25.7366 22.9395 14.3129 
27.2445 21.6458 12.8637 
27.3039 24.3895 12.9277 
27.2678 21.5666 15.7391 
27.2285 24.4909 15.6862 
1.50761 27.2631 12.9238 
0.125764 26.0295 14.3373 
1.36588 27.4493 15.8292 
2.92622 25.9843 14.3673 
5.97986 26.1088 14.3146 
7.27984 27.3149 12.9703 
4.37997 27.2618 12.9793 
4.5016 27.5068 15.7993 
7.51891 27.2416 15.9644 
10.1315 27.3249 12.8554 
8.70977 25.7371 14.1948 
8.61344 28.6459 14.2564 
11.4598 28.667 14.4259 
11.4816 25.7064 14.4182 
10.0174 27.2604 15.8002 
12.6713 27.1584 12.9522 
15.6541 27.112 12.9761 
14.2321 28.5882 14.467 
12.9497 27.0881 15.7458 
15.8848 27.259 15.8651 
14.3334 25.8109 14.3665 
18.7303 27.1193 12.7143 
17.4079 25.8045 14.2557 
20.04 25.7251 14.2558 
18.7405 27.0492 15.8028 
19.9246 28.6102 14.4488 
21.5297 27.1935 13.0183 
24.2959 26.9866 13.0018 
22.9092 28.6302 14.3162 
23.0235 25.6158 14.351 
21.6592 27.2276 15.7238 
24.3177 27.1992 15.9018 
27.1029 27.2477 12.9093 
25.747 25.7193 14.3828 
27.21 27.2377 15.7328 
1.6508 1.56616 18.6252 
2.73138 2.86243 16.9186 
2.85418 0.0683009 17.0857 
2.98759 3.12131 19.9813 
2.84359 0.00621288 20.0053 
0.0276556 0.280898 20.0284 
0.13824 3.05587 20.1306 
4.24035 1.61964 18.5292 
7.21825 1.628 18.3725 
5.77774 2.96635 17.164 
5.68128 0.20202 17.2625 
5.66539 2.85463 20.0356 
10.2596 1.56135 18.8366 
8.67372 2.92468 17.1847 
11.5075 2.78433 17.2393 
11.5358 0.0718422 17.2274 
8.72234 3.01018 20.0859 
11.4124 2.91898 20.3767 
12.9335 1.41789 18.6637 
15.7648 1.25468 18.6473 
14.3458 2.87665 17.3017 
14.4103 2.84295 20.2557 
18.7629 1.50414 18.6551 
17.308 2.93713 17.1654 
20.2152 3.01953 17.2926 
17.2226 2.72141 19.7536 
20.0815 2.94881 20.1483 
20.2079 0.24436 20.0646 
21.5707 1.47716 18.7629 
22.8995 2.9244 17.182 
24.3956 1.53068 18.6218 
24.5893 4.06317 18.5019 
22.9938 0.0353419 17.2161 
23.0176 3.03761 20.153 
23.0262 0.202953 20.204 
28.4953 0.288558 17.1545 
28.6064 2.85817 17.0571 
27.2146 1.44457 18.5705 
25.5832 2.66768 16.9884 
25.7646 0.060739 17.1409 
25.9037 3.05291 20.1556 
25.7588 0.178015 20.0668 
1.56965 4.28361 18.678 
1.45729 7.21985 18.6392 
2.65581 5.97446 16.8195 
2.83289 5.86945 20.0303 