ITEM: TIMESTEP
61041
ITEM: NUMBER OF ATOMS
18
ITEM: BOX BOUNDS pp pp pp
0.0000000000000000e+00 2.8712000000000000e+01
0.0000000000000000e+00 2.8712000000000000e+01
0.0000000000000000e+00 2.8712000000000000e+01
ITEM: ATOMS x y z c_cna 
17.231 25.8498 2.75824 5 
20.0468 25.8498 2.91239 5 
15.8277 24.4274 4.33403 5 
15.6404 24.0123 7.31886 5 
18.8126 24.0122 4.14671 5 
17.2265 23.0157 5.73279 5 
18.6252 24.4275 7.13155 5 
15.8276 27.2722 4.33395 5 
14.2521 25.8499 5.73748 5 
15.6404 27.6875 7.31884 5 
18.8124 27.6874 4.14657 5 
17.2264 28.6839 5.73268 5 
17.9753 25.8499 4.98356 5 
16.4776 25.8497 6.4819 5 
18.6252 27.2722 7.13146 5 
20.2007 25.8498 5.72803 5 
14.4062 25.8499 8.55318 5 
17.2219 25.8498 8.7072 5 
ITEM: TIMESTEP
61042
ITEM: NUMBER OF ATOMS
18
ITEM: BOX BOUNDS pp pp pp
0.0000000000000000e+00 2.8712000000000000e+01
0.0000000000000000e+00 2.8712000000000000e+01
0.0000000000000000e+00 2.8712000000000000e+01
ITEM: ATOMS x y z c_cna 
17.231 25.8498 2.75824 5 
20.0468 25.8498 2.91239 5 
15.8277 24.4274 4.33403 5 
15.6404 24.0123 7.31886 5 
18.8126 24.0122 4.14671 5 
17.2265 23.0157 5.73279 5 
18.6252 24.4275 7.13155 5 
15.8276 27.2722 4.33395 5 
14.2521 25.8499 5.73748 5 
15.6404 27.6875 7.31884 5 
18.8124 27.6874 4.14657 5 
17.2264 28.6839 5.73268 5 
17.9753 25.8499 4.98356 5 
16.4776 25.8497 6.4819 5 
18.6252 27.2722 7.13146 5 
20.2007 25.8498 5.72803 5 
14.4062 25.8499 8.55318 5 
17.2219 25.8498 8.7072 5 
