ITEM: TIMESTEP
61041
ITEM: NUMBER OF ATOMS
2001
ITEM: BOX BOUNDS pp pp pp
0.0000000000000000e+00 2.8712000000000000e+01
0.0000000000000000e+00 2.8712000000000000e+01
0.0000000000000000e+00 2.8712000000000000e+01
ITEM: ATOMS x y z c_cna 
1.43593 1.44527 1.42527 3 
2.87094 2.88075 2.86121 3 
2.87089 0.00927653 2.8617 3 
0.00118268 2.88203 2.86051 3 
4.30633 1.44469 1.42584 3 
7.17656 1.4451 1.42537 3 
5.74096 2.88105 2.86097 3 
5.74199 0.00912341 2.86204 3 
10.0457 1.44726 1.42332 3 
8.60965 2.88341 2.85937 3 
11.476 2.89011 2.85446 3 
8.61215 0.00974377 2.86147 3 
11.479 0.013754 2.85697 3 
12.9197 1.44829 1.42595 3 
15.776 1.46553 1.40797 3 
14.3546 2.88817 2.86085 3 
14.3627 0.0111238 2.86893 3 
18.6637 1.47676 1.39879 3 
17.2241 2.8922 2.85257 3 
20.1113 2.89767 2.84778 3 
20.1959 0.112913 2.76316 3 
17.1942 0.0545128 2.81089 3 
22.9854 2.89842 2.85463 3 
24.4152 1.4547 1.41547 3 
22.9827 0.0256931 2.84563 3 
21.5744 1.48846 1.38482 3 
28.712 0.0100788 2.8607 3 
27.2788 1.44735 1.42305 3 
25.846 2.88629 2.8586 3 
25.8429 0.0128465 2.85778 3 
1.43651 4.31699 1.42487 3 
1.43671 7.18834 1.42479 3 
2.87101 5.75232 2.86097 3 
0.0020089 5.75365 2.8607 3 
4.30596 4.31641 1.42514 3 
7.17533 4.31764 1.42428 3 
4.3058 7.1879 1.42484 3 
7.17527 7.18891 1.42432 3 
5.74024 5.75292 2.86055 3 
10.0442 4.32081 1.42219 3 
10.046 7.19002 1.42406 3 
8.60929 5.75524 2.85942 3 
11.4805 5.75671 2.8591 3 
12.9176 4.32141 1.42388 3 
15.7878 4.32432 1.42063 3 
12.9182 7.19034 1.42449 3 
15.7902 7.19048 1.42392 3 
14.354 5.75624 2.86034 3 
18.664 4.32578 1.41844 3 
18.6631 7.19067 1.42317 3 
17.2267 5.75591 2.859 3 
20.1014 5.75706 2.85774 3 
24.4147 4.32647 1.4199 3 
21.5433 4.32916 1.41591 3 
21.5368 7.19165 1.42249 3 
22.9752 5.75878 2.85868 3 
24.4094 7.19195 1.42312 3 
27.2802 4.31981 1.42331 3 
27.2798 7.19031 1.42414 3 
25.8458 5.75703 2.85996 3 
1.43656 10.0588 1.42489 3 
2.87102 8.6234 2.86091 3 
2.87103 11.4938 2.86092 3 
0.00134959 11.4938 2.86093 3 
0.00174575 8.62419 2.86088 3 
4.30591 10.0586 1.42486 3 
7.17587 10.0589 1.4248 3 
5.74036 8.62373 2.86064 3 
5.74063 11.4938 2.86076 3 
10.047 10.0592 1.42491 3 
8.61074 8.62448 2.86046 3 
11.4824 8.62479 2.86069 3 
8.61123 11.4938 2.86078 3 
11.4828 11.4939 2.86103 3 
12.9187 10.0593 1.42511 3 
15.7906 10.0592 1.42492 3 
14.3546 8.62458 2.86093 3 
14.3547 11.4939 2.86113 3 
18.6628 10.0593 1.42456 3 
17.2267 8.62432 2.86054 3 
20.0992 8.62456 2.86008 3 
17.2267 11.4939 2.86085 3 
20.0988 11.4939 2.86056 3 
21.5351 10.0594 1.42426 3 
22.9717 8.6252 2.86015 3 
22.9709 11.4939 2.86053 3 
24.4073 10.0596 1.42431 3 
27.2786 10.0593 1.42464 3 
25.8435 8.62516 2.86056 3 
25.8426 11.4938 2.86074 3 
1.43653 12.9288 1.42492 3 
1.43671 15.7993 1.42489 3 
2.871 14.3642 2.86091 3 
0.0017635 14.3634 2.8609 3 
4.30579 15.7998 1.42489 3 
4.3059 12.929 1.42487 3 
7.17583 12.9287 1.42477 3 
7.17521 15.7988 1.42435 3 
5.74032 14.3638 2.8606 3 
10.0469 12.9285 1.42489 3 
10.0459 15.7977 1.42407 3 
8.61063 14.3631 2.86044 3 
11.4822 14.3629 2.86067 3 
12.9187 12.9285 1.42513 3 
15.7906 12.9286 1.42493 3 
12.9181 15.7975 1.42453 3 
15.7902 15.7974 1.42396 3 
14.3545 14.3632 2.86093 3 
18.6628 12.9286 1.42456 3 
18.6632 15.7972 1.42319 3 
17.2267 14.3635 2.8605 3 
20.0993 14.3633 2.86006 3 
21.5352 12.9283 1.42428 3 
21.537 15.7962 1.42252 3 
22.9718 14.3626 2.86016 3 
24.4073 12.9281 1.42435 3 
24.4095 15.7959 1.42317 3 
27.2785 12.9283 1.42468 3 
27.2798 15.7974 1.42421 3 
25.8435 14.3626 2.86059 3 
1.43651 18.6708 1.42491 3 
2.87095 17.2354 2.86098 3 
2.87094 20.1071 2.86125 3 
0.00206023 17.2341 2.86075 3 
0.00131583 20.1059 2.86054 3 
4.30593 18.6714 1.42522 3 
7.17526 18.6702 1.42438 3 
5.74016 17.2348 2.86055 3 
5.74088 20.1068 2.86109 3 
10.0441 18.667 1.42227 3 
8.60916 17.2325 2.85945 3 
11.4804 17.2311 2.85909 3 
8.60956 20.1044 2.85949 3 
11.4758 20.0977 2.85455 3 
12.9175 18.6664 1.42394 3 
15.7878 18.6635 1.42072 3 
14.3539 17.2316 2.86038 3 
14.3545 20.0996 2.86096 3 
18.6641 18.662 1.41851 3 
17.2267 17.2319 2.85904 3 
20.1015 17.2308 2.85779 3 
17.2241 20.0955 2.85266 3 
20.1115 20.09 2.84792 3 
21.5435 18.6587 1.41599 3 
24.4149 18.6614 1.41993 3 
22.9753 17.229 2.85872 3 
22.9855 20.0894 2.85471 3 
27.2804 18.668 1.42336 3 
25.846 17.2308 2.86001 3 
25.8462 20.1016 2.85862 3 
1.436 21.5426 1.42527 3 
2.87091 22.9787 2.86177 3 
1.43561 24.4143 1.4259 3 
0.000122868 22.9778 2.8607 3 
4.30659 24.4144 1.42654 3 
4.30633 21.5432 1.42593 3 
7.17653 21.5428 1.42552 3 
5.74201 22.9788 2.86217 3 
7.17755 24.4145 1.42655 3 
10.0456 21.5406 1.42347 3 
8.61213 22.9781 2.86164 3 
11.4789 22.9741 2.8571 3 
10.0481 24.4142 1.42578 3 
12.9196 21.5395 1.42608 3 
15.776 21.5222 1.40812 3 
14.3626 22.9766 2.86906 3 
15.7811 24.4046 1.41423 3 
12.9245 24.4146 1.43084 3 
18.6639 21.5109 1.39889 3 
17.1943 22.9331 2.81101 3 
20.196 22.8747 2.76328 3 
18.6849 24.3831 1.4153 3 
21.5745 21.4993 1.38494 3 
24.4153 21.5331 1.41551 3 
22.9828 22.9621 2.84568 3 
24.408 24.4142 1.42248 3 
21.5392 24.4245 1.42009 3 
27.279 21.5406 1.42306 3 
25.843 22.975 2.85779 3 
27.2772 24.4139 1.42463 3 
1.43557 27.2857 1.42589 3 
2.87091 25.85 2.86202 3 
4.30657 27.2854 1.42649 3 
7.17754 27.2854 1.42651 3 
5.7424 25.8499 2.86261 3 
10.0481 27.2856 1.4257 3 
8.61338 25.8499 2.86282 3 
11.4827 25.8499 2.86096 3 
12.9245 27.2851 1.4308 3 
15.7811 27.295 1.41419 3 
14.3723 25.8498 2.87867 3 
18.6848 27.3165 1.41522 3 
17.231 25.8498 2.75824 5 
20.0468 25.8498 2.91239 5 
21.5392 27.2752 1.42006 3 
22.9672 25.8499 2.8609 3 
24.4079 27.2856 1.42245 3 
28.7116 25.85 2.86114 3 
27.2772 27.286 1.4246 3 
25.8406 25.8499 2.85995 3 
1.43532 1.44533 4.29689 3 
1.43486 1.44502 7.16842 3 
2.87051 2.88077 5.73285 3 
2.87052 0.00936782 5.73285 3 
0.000479407 2.88158 5.73282 3 
4.30613 1.44505 4.29725 3 
7.1763 1.44601 4.29703 3 
4.30569 1.4453 7.16878 3 
7.1756 1.44708 7.1696 3 
5.74055 2.88158 5.73284 3 
5.74183 0.00977383 5.73348 3 
10.0433 1.45009 4.29478 3 
10.0414 1.45318 7.17107 3 
8.60858 2.88491 5.73231 3 
11.4717 2.89422 5.72915 3 
8.61192 0.0115145 5.73412 3 
11.4757 0.0188407 5.73321 3 
12.9018 1.46556 4.28235 3 
15.7961 1.45391 4.30236 3 
12.8926 1.47681 7.17018 3 
15.7805 1.48042 7.1787 3 
14.3464 2.89221 5.73043 3 
14.3047 0.0545683 5.70058 3 
18.6724 1.4804 4.28669 3 
18.6568 1.4539 7.16299 3 
17.2264 2.88549 5.73267 3 
20.1065 2.89215 5.735 3 
20.1481 0.054473 5.76484 3 
21.5603 1.47672 4.29537 3 
24.4116 1.45309 4.29461 3 
21.5511 1.46543 7.1831 3 
24.4096 1.45003 7.17081 3 
22.9812 2.89416 5.73644 3 
22.9773 0.0187093 5.73236 3 
28.7112 0.00971942 5.73221 3 
27.2774 1.44704 4.2961 3 
27.2767 1.44599 7.1686 3 
25.8444 2.88492 5.73334 3 
25.8411 0.0114361 5.73152 3 
1.43594 4.31688 4.29695 3 
1.4362 7.18824 4.297 3 
1.43544 4.31664 7.1689 3 
1.43564 7.18807 7.16909 3 
2.87049 5.7523 5.73292 3 
0.00133465 5.75329 5.73316 3 
4.30536 7.18811 4.2968 3 
7.17461 4.3185 4.29616 3 
4.30559 4.3167 4.29687 3 
7.17463 7.18948 4.29632 3 
7.1738 4.31922 7.16897 3 
4.30481 7.1882 7.16886 3 
4.30509 4.31684 7.1688 3 
5.73969 5.75329 5.73264 3 
7.17396 7.18991 7.1688 3 
10.0421 4.32304 4.29416 3 
10.0453 7.19068 4.29614 3 
10.0403 4.32481 7.16897 3 
8.60827 5.7562 5.73211 3 
10.0445 7.19124 7.16906 3 
11.4793 5.7575 5.73223 3 
12.9144 4.32428 4.29417 3 
15.7905 4.32176 4.29679 3 
12.9176 7.19046 4.29661 3 
15.7905 7.18965 4.29683 3 
12.9123 4.32573 7.17043 3 
15.7877 4.32244 7.17156 3 
12.9169 7.19059 7.16958 3 
14.3528 5.75589 5.73307 3 
15.7898 7.18939 7.16952 3 
18.6652 4.32243 4.29386 3 
18.6632 7.18939 4.29602 3 
18.6624 4.32172 7.1686 3 
17.2265 5.7546 5.7327 3 
18.6625 7.18959 7.16868 3 
20.1002 5.75585 5.73245 3 
21.5407 4.32571 4.29513 3 
21.5361 7.19059 4.29607 3 
24.4085 7.19122 4.2967 3 
24.4127 4.32477 4.29669 3 
21.5385 4.32417 7.17136 3 
24.4109 4.32301 7.17147 3 
21.5353 7.19036 7.16901 3 
22.9737 5.75745 5.73341 3 
24.4077 7.19064 7.16959 3 
27.2792 4.31925 4.29675 3 
27.2791 7.18994 4.29702 3 
27.2784 4.31845 7.16956 3 
25.8447 5.75616 5.73364 3 
27.2784 7.18946 7.1695 3 
1.43607 10.0588 4.29701 3 
1.43551 10.0587 7.16902 3 
2.87051 8.62339 5.73294 3 
2.87052 11.4938 5.73294 3 
0.00114932 8.62398 5.73314 3 
0.000801453 11.4938 5.73305 3 
4.30548 10.0587 4.29682 3 
7.17549 10.059 4.29668 3 
4.30495 10.0587 7.16889 3 
5.73988 8.62398 5.73272 3 
7.175 10.0592 7.16889 3 
5.7402 11.4937 5.73279 3 
10.0467 10.0593 4.29682 3 
8.61021 8.62486 5.73268 3 
10.0462 10.0594 7.16907 3 
11.4819 8.6249 5.73295 3 
8.61086 11.4938 5.73284 3 
11.4825 11.4938 5.73303 3 
12.9186 10.0592 4.29707 3 
15.7906 10.059 4.297 3 
12.9182 10.0592 7.16922 3 
14.3542 8.62431 5.73316 3 
15.7903 10.059 7.16902 3 
14.3545 11.4939 5.7331 3 
18.6626 10.0589 4.2966 3 
17.2265 8.62395 5.73278 3 
18.6623 10.059 7.16857 3 
20.0987 8.62425 5.73245 3 
17.2265 11.4939 5.73276 3 
20.0984 11.4939 5.73251 3 
21.5348 10.0592 4.29649 3 
24.4068 10.0594 4.29673 3 
21.5344 10.0592 7.16855 3 
22.9711 8.62487 5.73275 3 
22.9704 11.4939 5.73264 3 
24.4063 10.0593 7.16889 3 
27.278 10.0592 4.29696 3 
25.8428 8.62485 5.73313 3 
27.2775 10.0591 7.1691 3 
25.8421 11.4939 5.73293 3 
1.43607 12.9288 4.297 3 
1.4362 15.7994 4.29701 3 
1.4355 12.9289 7.16899 3 
1.43567 15.7996 7.169 3 
2.87052 14.3642 5.7329 3 
0.00114395 14.3637 5.73313 3 
4.30549 12.9289 4.2968 3 
4.3053 15.7995 4.29673 3 
7.17545 12.9285 4.29666 3 
7.17452 15.7981 4.29625 3 
4.30495 12.9288 7.16887 3 
4.30479 15.7994 7.16877 3 
7.17497 12.9284 7.16885 3 
5.73981 14.3636 5.73266 3 
7.17384 15.7977 7.16874 3 
10.0466 12.9284 4.29678 3 
10.0452 15.797 4.2961 3 
10.0462 12.9282 7.16905 3 
8.6101 14.3628 5.73262 3 
10.0443 15.7964 7.16901 3 
11.4818 14.3628 5.7329 3 
12.9185 12.9286 4.29703 3 
15.7906 12.9288 4.29696 3 
12.9175 15.7973 4.29657 3 
15.7904 15.7982 4.2968 3 
12.9182 12.9285 7.16918 3 
15.7903 12.9288 7.16898 3 
12.9168 15.7971 7.16953 3 
14.3541 14.3635 5.7331 3 
15.7897 15.7984 7.16949 3 
18.6627 12.9289 4.29657 3 
18.6632 15.7984 4.296 3 
18.6623 12.9288 7.16853 3 
17.2264 14.3639 5.73274 3 
18.6624 15.7982 7.16867 3 
20.0988 14.3636 5.73243 3 
21.5348 12.9286 4.29649 3 
21.5362 15.7972 4.29608 3 
24.4068 12.9283 4.29674 3 
24.4087 15.7966 4.29671 3 
21.5344 12.9286 7.16854 3 
21.5354 15.7974 7.16897 3 
22.9711 14.3629 5.73275 3 
24.4063 12.9285 7.16888 3 
24.4078 15.7971 7.16957 3 
27.278 12.9284 4.29698 3 
27.2792 15.7978 4.29701 3 
27.2775 12.9286 7.1691 3 
25.8429 14.3629 5.73312 3 
27.2784 15.7983 7.16947 3 
1.43597 18.6709 4.29697 3 
1.43548 18.6711 7.16884 3 
2.8705 17.2354 5.73288 3 
2.87054 20.107 5.73288 3 
0.00137429 17.2345 5.73314 3 
0.000572936 20.1063 5.73285 3 
4.30553 18.6711 4.29688 3 
7.17448 18.6692 4.29619 3 
4.30504 18.6709 7.16881 3 
5.73958 17.2344 5.73258 3 
7.17364 18.6685 7.16896 3 
5.74046 20.1062 5.73292 3 
10.0419 18.6647 4.29422 3 
8.60811 17.2315 5.73207 3 
10.0401 18.6629 7.16896 3 
11.4791 17.2302 5.73224 3 
8.6084 20.1028 5.73238 3 
11.4716 20.0935 5.72919 3 
12.9143 18.6635 4.29422 3 
15.7905 18.666 4.29685 3 
12.9121 18.662 7.17043 3 
14.3526 17.2319 5.73306 3 
15.7876 18.6653 7.1716 3 
14.3463 20.0956 5.73049 3 
18.6653 18.6653 4.29396 3 
17.2264 17.2331 5.73276 3 
18.6623 18.666 7.16868 3 
20.1002 17.2319 5.73248 3 
17.2264 20.1022 5.73277 3 
20.1066 20.0955 5.73512 3 
21.5409 18.662 4.29521 3 
24.4129 18.6631 4.29674 3 
21.5386 18.6635 7.17139 3 
22.9738 17.2303 5.73343 3 
22.9814 20.0936 5.7365 3 
24.411 18.6648 7.17149 3 
27.2794 18.6686 4.29679 3 
25.8449 17.2316 5.73362 3 
27.2785 18.6694 7.16953 3 
25.8446 20.103 5.73335 3 
1.43539 21.5426 4.29696 3 
1.43491 24.4142 4.29702 3 
1.43496 21.5429 7.16842 3 
2.87054 22.9786 5.7329 3 
1.4345 24.4144 7.16791 3 
4.30566 21.5426 7.16882 3 
4.30611 21.5429 4.29735 3 
4.3066 24.4143 4.2979 3 
7.17623 21.5418 4.29716 3 
7.17816 24.4143 4.29876 3 
7.17553 21.5408 7.16965 3 
5.7418 22.9782 5.73354 3 
7.1776 24.4133 7.17007 3 
4.30617 24.4142 7.16878 3 
10.0433 21.5377 4.29491 3 
10.0483 24.4135 4.29907 3 
10.0413 21.5346 7.17106 3 
8.61188 22.9764 5.7342 3 
11.4756 22.969 5.73329 3 
10.0478 24.4096 7.17375 3 
12.9017 21.5222 4.28247 3 
15.7961 21.5338 4.30246 3 
12.9079 24.4047 4.28759 3 
15.8277 24.4274 4.33403 5 
12.8925 21.511 7.1702 3 
15.7805 21.5073 7.17877 3 
14.3047 22.9332 5.70063 3 
15.6404 24.0123 7.31886 5 
12.909 24.3832 7.19123 3 
18.8126 24.0122 4.14671 5 
18.6725 21.5072 4.28682 3 
18.6568 21.5338 7.16311 3 
17.2265 23.0157 5.73279 5 
20.1483 22.9332 5.76496 3 
18.6252 24.4275 7.13155 5 
21.5605 21.511 4.29548 3 
24.4117 21.5347 4.29463 3 
21.544 24.3832 4.27438 3 
24.4053 24.4096 4.29191 3 
21.5512 21.5222 7.18318 3 
22.9774 22.969 5.73242 3 
24.4047 24.4135 7.16665 3 
24.4098 21.5378 7.17083 3 
21.545 24.4047 7.178 3 
28.7113 22.9782 5.73223 3 
27.2775 21.5409 4.29611 3 
27.2755 24.4133 4.29563 3 
27.2768 21.5419 7.16861 3 
25.8412 22.9764 5.73154 3 
27.2749 24.4143 7.167 3 
1.4349 27.2858 4.29698 3 
1.43447 27.2856 7.16791 3 
2.87056 25.85 5.73289 3 
4.3066 27.2856 4.29783 3 
7.17817 27.2857 4.29868 3 
4.30618 27.2858 7.16875 3 
5.74252 25.85 5.73402 3 
7.17761 27.2866 7.17006 3 
10.0483 27.2864 4.29901 3 
8.61451 25.85 5.73623 3 
10.0478 27.2903 7.17373 3 
11.4826 25.8499 5.74231 3 
12.908 27.2951 4.28753 3 
15.8276 27.2722 4.33395 5 
12.909 27.3166 7.19122 3 
14.2521 25.8499 5.73748 5 
15.6404 27.6875 7.31884 5 
18.8124 27.6874 4.14657 5 
17.2264 28.6839 5.73268 5 
17.9753 25.8499 4.98356 5 
16.4776 25.8497 6.4819 5 
18.6252 27.2722 7.13146 5 
20.2007 25.8498 5.72803 5 
21.5439 27.3165 4.27432 3 
24.4052 27.2902 4.29189 3 
21.5449 27.295 7.17799 3 
22.9705 25.8499 5.7233 3 
24.4047 27.2863 7.16664 3 
27.2754 27.2866 4.29565 3 
28.7106 25.85 5.73172 3 
25.8385 25.8499 5.72948 3 
27.2748 27.2856 7.167 3 
2.87005 2.8807 8.60453 3 
2.87009 0.00927756 8.60401 3 
1.43457 1.44469 10.0399 3 
2.86961 2.88046 11.4762 3 
2.86971 0.00904312 11.4754 3 
1.06468e-05 2.88099 8.60469 3 
4.30503 1.44526 10.0405 3 
5.7398 2.88199 8.60523 3 
5.73997 0.00953668 11.4766 3 
7.17419 1.44735 10.0427 3 
5.73898 2.88191 11.4776 3 
5.74101 0.0101112 8.60506 3 
8.60702 2.88632 8.60714 3 
11.4676 2.8985 8.61103 3 
11.4703 0.0258097 8.62002 3 
10.0378 1.45475 10.0502 3 
8.60552 2.88644 11.4821 3 
11.4649 2.90037 11.4946 3 
8.61016 0.0129085 8.60791 3 
11.4754 0.00972272 11.4841 3 
8.60885 0.0101563 11.4791 3 
14.3417 2.89773 8.61773 3 
14.2571 0.11299 8.70231 3 
14.3395 0.0257757 11.4891 3 
12.8787 1.48854 10.0808 3 
15.7893 1.47676 10.0667 3 
14.3485 2.89848 11.4918 3 
17.2288 2.8922 8.61284 3 
20.0983 2.88806 8.60457 3 
18.6769 1.46547 10.0574 3 
17.2302 2.8942 11.4876 3 
20.1048 2.88998 11.4834 3 
17.2587 0.0545318 8.65447 3 
20.0902 0.0110708 8.59649 3 
17.2261 0.0187476 11.4837 3 
20.1022 0.0136563 11.4803 3 
22.9769 2.88999 8.61107 3 
22.9739 0.0136499 8.60854 3 
22.9677 0.00944249 11.4742 3 
21.5331 1.44817 10.0395 3 
22.9703 2.88306 11.4767 3 
24.4072 1.44717 10.0422 3 
28.711 0.0089231 11.4753 3 
25.8433 2.88337 8.60624 3 
28.7116 2.88043 11.4761 3 
27.2763 1.44509 10.0403 3 
25.8416 2.88161 11.477 3 
28.711 0.00910929 8.60363 3 
25.8408 0.00971259 8.60415 3 
25.8403 0.00910667 11.4756 3 
2.86999 5.75224 8.60487 3 
1.43497 4.31632 10.0406 3 
1.43511 7.18783 10.041 3 
2.86955 5.75204 11.4767 3 
0.000737685 5.75283 8.60524 3 
7.2811e-05 5.75222 11.4768 3 
5.73901 5.75358 8.60508 3 
4.30449 4.31692 10.0409 3 
4.30429 7.18823 10.041 3 
7.17277 4.31978 10.0424 3 
7.17329 7.19021 10.0417 3 
5.73845 5.75367 11.4777 3 
8.60721 5.75702 8.60578 3 
11.4779 5.75878 8.60702 3 
10.0383 4.32649 10.0458 3 
10.0437 7.1919 10.0427 3 
8.60639 5.75751 11.48 3 
11.4771 5.76002 11.4824 3 
14.3516 5.75703 8.60781 3 
12.9098 4.32917 10.0497 3 
15.789 4.32573 10.0471 3 
12.9163 7.1916 10.0432 3 
15.7899 7.19058 10.0425 3 
14.3525 5.75878 11.4816 3 
17.2263 5.75586 8.60648 3 
20.0989 5.7561 8.60518 3 
18.6651 4.32419 10.0449 3 
18.6628 7.19039 10.0416 3 
17.2272 5.75748 11.4801 3 
20.1002 5.75659 11.4788 3 
22.9724 5.75656 8.60654 3 
21.5353 4.32124 10.0417 3 
21.5347 7.19022 10.0411 3 
22.9708 5.75479 11.4773 3 
24.4086 4.32072 10.0434 3 
24.4068 7.18996 10.0416 3 
25.8437 5.7552 8.60628 3 
27.2775 4.31751 10.0414 3 
27.2776 7.18885 10.0414 3 
25.8423 5.75379 11.4776 3 
2.86996 8.62337 8.60494 3 
2.86996 11.4938 8.60492 3 
1.43502 10.0586 10.0409 3 
2.86956 8.62324 11.4768 3 
2.86956 11.4938 11.4768 3 
0.000572523 8.62376 8.60519 3 
0.000286314 11.4938 8.605 3 
4.26687e-05 8.62342 11.4768 3 
5.73931 8.62408 8.60496 3 
5.73968 11.4937 8.60493 3 
4.30445 10.0587 10.0409 3 
7.17453 10.0592 10.0412 3 
5.7389 8.62417 11.4772 3 
5.7393 11.4938 11.477 3 
8.60961 8.62511 8.60527 3 
11.4814 8.6252 8.60564 3 
8.61042 11.4938 8.60512 3 
11.4822 11.4938 8.60527 3 
11.481 8.62567 11.4785 3 
10.0458 10.0595 10.0415 3 
8.60916 8.62536 11.478 3 
8.61008 11.4938 11.4774 3 
11.4819 11.4939 11.4775 3 
14.3538 8.62453 8.60561 3 
14.3542 11.4939 8.60514 3 
12.9179 10.0594 10.0415 3 
15.7902 10.0592 10.0411 3 
14.3539 8.62524 11.4781 3 
14.3542 11.4939 11.4772 3 
17.2262 8.62426 8.60505 3 
20.0984 8.62452 8.60463 3 
17.2263 11.4939 8.60472 3 
20.0982 11.4939 8.60442 3 
18.6623 10.0592 10.0407 3 
17.2265 8.6249 11.4774 3 
20.0987 8.62477 11.4769 3 
17.2264 11.4939 11.4767 3 
20.0983 11.4939 11.4764 3 
22.9706 8.62475 8.60496 3 
22.9701 11.4939 8.60459 3 
21.5342 10.0593 10.0405 3 
22.9703 8.62445 11.4766 3 
22.97 11.4939 11.4763 3 
24.4059 10.0592 10.0407 3 
28.7119 11.4938 11.4766 3 
25.8422 8.62451 8.60528 3 
25.8417 11.4939 8.6049 3 
27.277 10.0589 10.0409 3 
25.8416 8.62403 11.4769 3 
25.8413 11.4939 11.4765 3 
2.86999 14.3642 8.60487 3 
1.43502 12.929 10.0409 3 
1.43516 15.7998 10.0408 3 
2.86955 14.3644 11.4767 3 
0.000587 14.3639 8.60512 3 
7.51266e-05 14.3643 11.4767 3 
5.73926 14.3634 8.6049 3 
4.30446 12.9288 10.0409 3 
4.3043 15.7994 10.0409 3 
7.17449 12.9283 10.0411 3 
7.17319 15.7974 10.0415 3 
5.73884 14.3634 11.4771 3 
8.6095 14.3625 8.60521 3 
11.4812 14.3625 8.60558 3 
10.0457 12.9281 10.0415 3 
10.0435 15.7958 10.0426 3 
8.60906 14.3623 11.4779 3 
11.4809 14.3621 11.4784 3 
14.3537 14.3632 8.60556 3 
12.9179 12.9283 10.0415 3 
15.7902 12.9286 10.0411 3 
12.9161 15.7961 10.0431 3 
15.7897 15.7972 10.0424 3 
14.3538 14.3626 11.478 3 
17.2261 14.3635 8.605 3 
20.0983 14.3633 8.60459 3 
18.6623 12.9286 10.0406 3 
18.6627 15.7974 10.0415 3 
17.2264 14.3629 11.4773 3 
20.0986 14.3631 11.4769 3 
22.9706 14.3631 8.60493 3 
21.5342 12.9286 10.0404 3 
21.5347 15.7976 10.041 3 
22.9703 14.3634 11.4766 3 
24.4069 15.7978 10.0415 3 
24.406 12.9286 10.0407 3 
25.8423 14.3632 8.60525 3 
27.277 12.9288 10.0409 3 
27.2777 15.7989 10.0414 3 
25.8417 14.3637 11.4768 3 
2.87002 17.2354 8.60477 3 
2.87007 20.1071 8.6045 3 
0.000120941 20.1069 8.60465 3 
0.000802387 17.2349 8.60517 3 
1.43503 18.6714 10.0405 3 
2.86956 17.2356 11.4765 3 
2.86964 20.1073 11.4761 3 
0.00017577 17.2355 11.4767 3 
5.73895 17.2341 8.60501 3 
5.73971 20.1058 8.6052 3 
4.30447 18.6708 10.0408 3 
7.17268 18.668 10.0424 3 
5.73841 17.234 11.4775 3 
5.73892 20.1059 11.4775 3 
8.60704 17.2307 8.60571 3 
11.4777 17.2289 8.60694 3 
8.60689 20.1015 8.6071 3 
11.4675 20.0893 8.61098 3 
10.0382 18.6613 10.0457 3 
8.60625 17.2302 11.4798 3 
11.4769 17.2278 11.4823 3 
8.60543 20.1014 11.482 3 
11.4647 20.0874 11.4946 3 
14.3514 17.2307 8.60777 3 
14.3415 20.0901 8.61774 3 
12.9096 18.6586 10.0496 3 
15.7888 18.6621 10.047 3 
14.3523 17.229 11.4815 3 
14.3483 20.0893 11.4917 3 
17.2261 17.2319 8.60645 3 
20.0989 17.2317 8.60513 3 
17.2288 20.0956 8.61289 3 
20.0983 20.0997 8.6046 3 
18.6651 18.6635 10.0448 3 
17.2271 17.2303 11.48 3 
20.1002 17.2312 11.4787 3 
17.2302 20.0936 11.4876 3 
20.1048 20.0977 11.4833 3 
22.9725 17.2312 8.60648 3 
22.9771 20.0977 8.61109 3 
21.5353 18.6665 10.0416 3 
22.9709 17.233 11.4772 3 
22.9704 20.1047 11.4767 3 
24.4088 18.6671 10.0434 3 
25.8438 17.2326 8.60626 3 
25.8434 20.1045 8.60621 3 
28.7117 20.1074 11.476 3 
27.2777 18.6703 10.0413 3 
25.8425 17.234 11.4775 3 
25.8418 20.1062 11.4769 3 
2.87013 22.9787 8.60402 3 
1.43438 24.4145 10.0392 3 
1.43467 21.5432 10.0398 3 
2.86974 22.9789 11.4754 3 
5.74098 22.9779 8.60504 3 
4.3054 24.4143 10.0398 3 
7.17587 24.4139 10.0411 3 
4.305 21.5426 10.0404 3 
7.17412 21.5405 10.0426 3 
5.73991 22.9784 11.4765 3 
8.61014 22.975 8.60792 3 
11.4702 22.962 8.62 3 
10.0451 24.4143 10.0432 3 
10.0377 21.5331 10.0502 3 
8.6088 22.9777 11.4791 3 
11.4752 22.9781 11.4841 3 
14.2569 22.8748 8.70235 3 
15.7891 21.511 10.0668 3 
12.8785 21.4993 10.0807 3 
15.7681 24.3832 10.0503 3 
12.9138 24.4245 10.0456 3 
14.3394 22.9621 11.4891 3 
17.2587 22.9332 8.65456 3 
20.0903 22.9766 8.59652 3 
18.6769 21.5222 10.0575 3 
18.6718 24.4047 10.0513 3 
17.2261 22.969 11.4837 3 
20.1023 22.9741 11.4803 3 
22.974 22.9741 8.60858 3 
21.5332 21.5395 10.0395 3 
21.5284 24.4146 10.0347 3 
24.4048 24.4142 10.0399 3 
22.9678 22.9783 11.4741 3 
24.4073 21.5406 10.0422 3 
28.7111 22.9788 8.60362 3 
25.8409 22.9781 8.60414 3 
27.2765 21.5428 10.0402 3 
25.8404 22.9787 11.4756 3 
27.2754 24.4145 10.0392 3 
28.7111 22.979 11.4752 3 
2.87013 25.85 8.60379 3 
1.43434 27.2855 10.0392 3 
2.86975 25.85 11.4752 3 
5.74154 25.85 8.6046 3 
7.17588 27.286 10.0411 3 
4.30542 27.2857 10.0398 3 
5.74024 25.85 11.4761 3 
8.61249 25.85 8.60573 3 
11.4859 25.85 8.60472 3 
11.4765 25.8499 11.4829 3 
8.60953 25.8499 11.4782 3 
10.0452 27.2856 10.0432 3 
14.4062 25.8499 8.55318 5 
14.3547 25.8499 11.4735 3 
15.7682 27.3165 10.0503 3 
12.9139 27.2753 10.0456 3 
17.2219 25.8498 8.7072 5 
20.0806 25.8499 8.58686 3 
17.217 25.8498 11.4768 3 
18.6717 27.295 10.0513 3 
20.0983 25.8498 11.4766 3 
22.9703 25.8499 8.60464 3 
21.5284 27.2851 10.0348 3 
22.9665 25.8499 11.4729 3 
24.4048 27.2856 10.0399 3 
28.7106 25.85 8.60312 3 
25.8396 25.8499 8.60289 3 
27.2754 27.2854 10.0392 3 
25.8398 25.8499 11.475 3 
28.7108 25.85 11.4749 3 
1.43437 1.44442 12.9113 3 
1.43431 1.44418 15.7824 3 
2.86946 2.88005 14.3475 3 
2.8695 0.00885854 14.347 3 
4.30457 1.4448 12.912 3 
7.17381 1.4458 12.9141 3 
5.73911 2.88086 14.3489 3 
4.30463 1.44444 15.7833 3 
7.17462 1.44497 15.7848 3 
5.73953 0.00916531 14.3482 3 
10.0415 1.44757 12.9179 3 
11.4774 2.88641 14.3539 3 
10.0454 1.44572 15.7855 3 
8.60799 2.88267 14.3515 3 
11.4804 0.010108 14.3505 3 
8.60903 0.0096698 14.3503 3 
12.9093 1.45473 12.9216 3 
15.7884 1.45312 12.918 3 
14.3524 2.88626 14.3524 3 
12.9168 1.44728 15.7853 3 
15.7898 1.44697 15.7839 3 
14.3516 0.0128354 14.3493 3 
18.6645 1.45002 12.9161 3 
17.227 2.8849 14.3509 3 
20.0998 2.88333 14.3498 3 
18.6622 1.44594 15.7832 3 
17.2252 0.0113872 14.3475 3 
20.0977 0.00963236 14.3473 3 
21.5358 1.44712 12.9136 3 
24.4045 1.445 12.911 3 
22.9705 2.88153 14.3482 3 
21.5338 1.445 15.7829 3 
24.4047 1.44446 15.7823 3 
22.9691 0.00902817 14.3468 3 
27.2757 1.44454 12.9113 3 
25.8404 2.88033 14.347 3 
25.8396 0.00878656 14.3461 3 
27.2754 1.4442 15.782 3 
28.7111 2.87994 14.3471 3 
28.7108 0.0087622 14.3465 3 
1.43455 4.3159 12.912 3 
1.43469 7.18746 12.9124 3 
2.86935 5.75167 14.348 3 
1.43445 4.31543 15.7828 3 
1.43456 7.18704 15.7832 3 
7.17238 4.31934 12.9154 3 
4.30413 4.31661 12.9128 3 
4.304 7.18809 12.9129 3 
7.17302 7.19018 12.9143 3 
5.73853 5.75312 14.3495 3 
4.30421 7.18762 15.7841 3 
4.30443 4.31592 15.7838 3 
7.17403 4.31719 15.7854 3 
7.17377 7.1892 15.7856 3 
10.0385 4.32573 12.921 3 
10.0436 7.19207 12.9159 3 
11.4796 5.75754 14.3531 3 
10.0441 4.31935 15.787 3 
10.0452 7.19025 15.7864 3 
8.60716 5.75633 14.3523 3 
12.9137 4.32645 12.9211 3 
15.7905 4.32481 12.9191 3 
12.9169 7.19196 12.9158 3 
15.7904 7.19129 12.9149 3 
12.9171 4.31977 15.7867 3 
15.7905 4.31927 15.7857 3 
12.9179 7.19038 15.7861 3 
15.7907 7.19005 15.7855 3 
14.3537 5.75708 14.3523 3 
18.6652 4.32302 12.9173 3 
18.6633 7.19067 12.9141 3 
17.2273 5.75623 14.3512 3 
20.0999 5.75522 14.3501 3 
18.6632 4.3185 15.7849 3 
18.6631 7.18954 15.7848 3 
24.4058 4.31755 12.9124 3 
21.537 4.32068 12.9151 3 
21.5352 7.18999 12.9133 3 
24.406 7.18882 12.9125 3 
22.9711 5.75382 14.3489 3 
21.5349 4.31751 15.7841 3 
24.4056 4.31638 15.7831 3 
21.5349 7.18893 15.7841 3 
24.406 7.18805 15.7833 3 
28.7115 5.75155 14.3476 3 
27.2765 4.31641 12.9122 3 
27.2769 7.18804 12.9125 3 
27.276 4.31563 15.7826 3 
27.2764 7.18725 15.7829 3 
25.8411 5.75222 14.3477 3 
1.43467 10.0585 12.9124 3 
2.86937 8.62305 14.3482 3 
2.86941 11.4939 14.3481 3 
1.4346 10.0583 15.7832 3 
4.3042 10.0587 12.9127 3 
7.17429 10.0593 12.9134 3 
5.73885 8.62397 14.3491 3 
5.73925 11.4938 14.3487 3 
4.30434 10.0586 15.7839 3 
7.17459 10.0591 15.7847 3 
10.0457 10.0597 12.9138 3 
11.4821 11.4939 14.3493 3 
10.0461 10.0594 15.7851 3 
8.61009 11.4939 14.3493 3 
8.60932 8.62512 14.3501 3 
11.4815 8.62548 14.3503 3 
12.918 10.0597 12.9136 3 
15.7905 10.0595 12.9131 3 
14.3543 8.6253 14.3498 3 
14.3544 11.494 14.3489 3 
12.9183 10.0595 15.7849 3 
15.7906 10.0594 15.7844 3 
18.6626 10.0594 12.9126 3 
17.2266 11.494 14.3484 3 
20.0986 11.4939 14.348 3 
18.6627 10.0592 15.7838 3 
17.2268 8.62496 14.3492 3 
20.0989 8.62457 14.3486 3 
21.5344 10.0592 12.9123 3 
24.4057 10.059 12.9121 3 
22.9701 11.494 14.3477 3 
21.5345 10.059 15.7834 3 
24.4058 10.0587 15.783 3 
22.9704 8.62407 14.3481 3 
28.7117 8.62298 14.3478 3 
28.7116 11.4939 14.3477 3 
27.2766 10.0587 12.9123 3 
25.8411 11.4939 14.3476 3 
27.2765 10.0584 15.7829 3 
25.8412 8.62337 14.3477 3 
1.43466 12.9292 12.9124 3 
1.43473 15.8002 12.9123 3 
2.86941 14.3647 14.3481 3 
1.43462 12.9294 15.7832 3 
1.43463 15.8007 15.7831 3 
4.3042 12.9289 12.9127 3 
4.304 15.7996 12.9128 3 
7.17428 12.9283 12.9133 3 
7.17293 15.7975 12.9142 3 
5.73888 14.3637 14.349 3 
4.30424 15.8001 15.784 3 
4.30437 12.9292 15.7839 3 
7.17456 12.9286 15.7847 3 
7.17369 15.7985 15.7856 3 
8.60924 14.3626 14.35 3 
10.0456 12.9281 12.9137 3 
10.0434 15.7957 12.9158 3 
10.046 12.9284 15.785 3 
10.045 15.7976 15.7863 3 
11.4814 14.3624 14.3502 3 
12.9179 12.9282 12.9136 3 
15.7904 12.9284 12.9131 3 
12.9167 15.7959 12.9157 3 
15.7903 15.7966 12.9148 3 
14.3542 14.3626 14.3497 3 
12.9183 12.9285 15.7848 3 
15.7906 12.9286 15.7843 3 
12.9178 15.7975 15.7861 3 
15.7906 15.7978 15.7854 3 
20.0989 14.3633 14.3485 3 
18.6626 12.9285 12.9126 3 
18.6632 15.7972 12.914 3 
18.6627 12.9287 15.7838 3 
18.6631 15.7983 15.7847 3 
17.2268 14.363 14.3491 3 
22.9704 14.3638 14.348 3 
21.5344 12.9286 12.9122 3 
21.5352 15.7978 12.9132 3 
24.4057 12.9289 12.9121 3 
24.4061 15.799 12.9124 3 
21.5345 12.9289 15.7834 3 
21.535 15.7989 15.784 3 
24.4061 15.7997 15.7833 3 
24.4058 12.9291 15.783 3 
27.2766 12.9291 12.9122 3 
27.2769 15.7997 12.9124 3 
28.7117 14.3648 14.3478 3 
25.8412 14.3644 14.3476 3 
27.2765 12.9294 15.7829 3 
27.2764 15.8006 15.7828 3 
1.43464 18.6718 12.9119 3 
2.8695 20.1077 14.3474 3 
2.86942 17.236 14.3479 3 
1.43453 18.6722 15.7827 3 
4.30412 18.6711 12.9126 3 
7.17228 18.6684 12.9152 3 
5.73906 20.1069 14.3488 3 
4.30443 18.6718 15.7836 3 
7.17389 18.6705 15.7853 3 
5.73848 17.2346 14.3494 3 
10.0383 18.6621 12.921 3 
11.4773 20.1014 14.3538 3 
11.4795 17.2303 14.353 3 
8.607 17.2314 14.3522 3 
10.044 18.6684 15.787 3 
8.60787 20.1051 14.3514 3 
14.3536 17.2307 14.3521 3 
12.9135 18.6613 12.921 3 
15.7903 18.663 12.919 3 
14.3522 20.1015 14.3523 3 
12.9169 18.668 15.7866 3 
15.7903 18.6685 15.7856 3 
20.0999 17.2326 14.35 3 
18.6651 18.6647 12.9172 3 
17.2272 17.2316 14.351 3 
18.6632 18.6692 15.7847 3 
20.0999 20.1043 14.3497 3 
17.227 20.1028 14.3508 3 
22.9706 20.1061 14.3481 3 
21.537 18.667 12.915 3 
24.406 18.6702 12.9123 3 
22.9712 17.234 14.3488 3 
21.535 18.6702 15.784 3 
24.4057 18.6713 15.783 3 
28.7116 17.2362 14.3475 3 
25.8412 17.2356 14.3476 3 
28.7113 20.1078 14.3469 3 
27.2767 18.6714 12.912 3 
25.8405 20.1074 14.3468 3 
27.2761 18.6721 15.7824 3 
1.43446 21.5434 12.9113 3 
1.43431 24.4146 12.9108 3 
2.86953 22.9791 14.3469 3 
1.43437 21.5436 15.7823 3 
1.43428 24.4146 15.7821 3 
5.73951 22.9787 14.3482 3 
4.30479 24.4144 12.9114 3 
7.17442 24.4142 12.9132 3 
4.30454 21.543 12.912 3 
7.17374 21.5421 12.914 3 
4.30464 21.5434 15.7832 3 
7.17456 21.5428 15.7847 3 
4.30476 24.4145 15.783 3 
7.17491 24.4143 15.7844 3 
10.043 24.414 12.9163 3 
10.0414 21.5402 12.9179 3 
10.0453 21.542 15.7855 3 
10.0462 24.4142 15.7849 3 
11.4802 22.9777 14.3505 3 
8.60895 22.9782 14.3503 3 
12.9091 21.5331 12.9215 3 
15.7883 21.5346 12.918 3 
15.7856 24.4095 12.9116 3 
12.9162 24.4142 12.9142 3 
12.9167 21.5405 15.7852 3 
15.7897 21.5407 15.7838 3 
12.9183 24.4138 15.7835 3 
15.7893 24.4131 15.7818 3 
14.3514 22.9749 14.3492 3 
18.6645 21.5377 12.916 3 
20.0978 22.978 14.3472 3 
18.6603 24.4134 12.9111 3 
18.6623 21.5417 15.7831 3 
18.6607 24.4141 15.7812 3 
17.2252 22.9763 14.3474 3 
22.9691 22.9787 14.3467 3 
24.4035 24.4144 12.9099 3 
21.5336 24.4142 12.9112 3 
24.4046 21.5427 12.911 3 
21.5359 21.5405 12.9136 3 
21.5339 21.5427 15.7827 3 
24.4048 21.5433 15.7822 3 
24.4042 24.4145 15.7818 3 
21.5328 24.4144 15.7818 3 
27.2754 24.4145 12.9107 3 
27.2759 21.5433 12.9112 3 
25.8397 22.979 14.3461 3 
28.7109 22.9791 14.3465 3 
27.2756 21.5436 15.7819 3 
27.2752 24.4146 15.7816 3 
1.43428 27.2854 12.9108 3 
2.86956 25.85 14.3467 3 
1.43424 27.2853 15.7821 3 
4.3048 27.2855 12.9115 3 
7.17447 27.2857 12.9132 3 
5.73966 25.85 14.3479 3 
4.30474 27.2854 15.783 3 
7.17493 27.2855 15.7844 3 
10.0431 27.2859 12.9163 3 
8.60933 25.85 14.35 3 
11.4812 25.8499 14.3498 3 
10.0462 27.2857 15.7848 3 
15.7857 27.2902 12.9116 3 
12.9163 27.2856 12.9142 3 
14.3537 25.8499 14.3469 3 
12.9184 27.2859 15.7835 3 
15.7894 27.2865 15.7818 3 
17.2232 25.8498 14.3449 3 
18.6603 27.2863 12.9111 3 
18.6606 27.2855 15.7813 3 
20.0965 25.8499 14.346 3 
22.9686 25.8499 14.3462 3 
24.4034 27.2853 12.9099 3 
21.5335 27.2856 12.9112 3 
21.5327 27.2853 15.7819 3 
24.4042 27.2853 15.7818 3 
28.7108 25.85 14.3463 3 
27.2753 27.2854 12.9107 3 
27.2752 27.2853 15.7816 3 
25.8393 25.8499 14.3458 3 
1.43475 1.44412 18.6531 3 
2.86975 2.87975 17.2183 3 
2.86973 0.00871012 17.2181 3 
2.87051 2.87966 20.0888 3 
2.87047 0.0086534 20.0888 3 
4.30534 1.44419 18.654 3 
7.17614 1.44435 18.6547 3 