ITEM: TIMESTEP
62000
ITEM: NUMBER OF ATOMS
2001
ITEM: BOX BOUNDS pp pp pp
0.0000000000000000e+00 2.8712000000000000e+01
0.0000000000000000e+00 2.8712000000000000e+01
0.0000000000000000e+00 2.8712000000000000e+01
ITEM: ATOMS x y z 
1.22009 1.48058 1.58679 
2.71453 2.93971 2.84669 
2.75923 0.229672 2.64986 
2.59073 2.75022 0.0296294 
0.00242867 2.80938 0.0509219 
4.19272 1.47275 1.33881 
7.24798 1.55653 1.4521 
5.83114 2.9989 2.81715 
5.74897 0.000498272 2.79284 
5.54977 2.76039 0.0292808 
9.99106 1.4663 1.47178 
8.55455 2.9263 2.7331 
11.424 2.85836 2.94463 
11.3583 0.074609 2.88328 
12.7681 1.40949 1.36261 
15.6776 1.28897 1.37917 
14.3244 2.88964 2.77907 
14.3367 2.83238 0.104488 
18.5893 1.60592 1.36496 
17.1621 2.90294 2.84488 
20.1045 2.8438 2.86225 
20.2053 0.197183 2.74388 
20.1756 2.93152 0.0219754 
22.852 2.87615 2.89161 
24.3927 1.48649 1.42065 
23.0491 0.011311 2.91107 
21.7023 1.52752 1.24797 
28.5258 2.91271 2.91197 
27.1873 1.36471 1.5032 
25.8188 2.89086 2.82318 
25.9742 0.0732101 2.95665 
28.6394 0.0311625 0.0201914 
1.49372 4.36964 1.51557 
1.60372 7.04939 1.35129 
2.88938 5.78445 2.91122 
4.19572 4.29996 1.33187 
7.07568 4.33411 1.33727 
4.21368 7.13871 1.23248 
7.09984 7.00272 1.3541 
5.69614 5.52034 2.75255 
10.0575 4.29633 1.3146 
10.123 7.17989 1.39154 
8.63919 5.7447 2.72447 
11.3292 5.80184 2.94212 
11.5324 5.66324 0.0208363 
12.8915 4.23989 1.52357 
15.9712 4.14852 1.4522 
12.8464 7.19348 1.27309 
15.8434 7.10833 1.47459 
14.2818 5.83872 2.8832 
14.5176 5.56796 0.134611 
18.7059 4.46171 1.47356 
18.5583 7.41881 1.54823 
17.2509 5.85746 2.84274 
20.1593 5.80363 2.68597 
20.1206 5.80233 0.173273 
24.298 4.33435 1.59256 
21.5191 4.31651 1.33866 
21.5517 7.26247 1.35243 
22.9224 5.8909 2.77807 
24.2768 7.25287 1.5521 
28.4469 5.63752 2.61952 
27.0388 4.23713 1.32948 
27.1926 7.06677 1.39045 
25.6635 5.77093 2.86402 
25.7232 5.7712 0.0605399 
1.49078 9.9904 1.38118 
2.86546 8.65369 2.94235 
3.05173 11.2252 2.97077 
0.00880324 11.2296 2.7255 
0.171888 8.53143 2.68347 
3.01566 11.4222 0.101193 
4.37054 9.94666 1.43851 
7.15815 10.0006 1.24695 
5.76957 8.56932 2.82257 
5.7422 11.4725 3.03196 
5.80674 8.58485 0.110997 
5.73172 11.5677 0.0960571 
10.1948 10.2026 1.23031 
8.63734 8.5662 2.78033 
10.1901 10.0065 3.88752 
11.5786 8.64035 2.66021 
8.61214 11.6951 2.7513 
11.5162 11.7183 2.72343 
11.5977 8.54126 0.0708916 
12.888 10.1055 1.24902 
15.7095 10.0686 1.33711 
14.3099 8.48189 2.73088 
14.4582 11.512 2.87699 
14.4538 8.37331 0.0254845 
18.6324 10.1728 1.49169 
17.2419 8.67217 2.92907 
20.277 8.73148 2.90081 
17.2185 11.611 2.76819 
20.1582 11.5522 2.72948 
21.5878 10.1135 1.33509 
22.8734 8.74618 2.83969 
22.9987 11.4327 2.73738 
24.4148 10.0242 1.32121 
28.6539 11.4817 0.0250948 
27.1939 10.0344 1.22105 
25.8143 8.4371 2.78761 
25.8475 11.3723 2.90046 
1.5311 12.8346 1.45316 
1.34222 15.8475 1.59988 
2.91466 14.2763 2.96441 
0.0425576 14.2018 2.82945 
0.0890661 14.3596 0.279552 
3.01095 14.1391 0.285138 
4.17021 15.8135 1.44476 
4.38868 12.712 1.49248 
7.16671 13.007 1.5059 
7.31105 15.7151 1.54016 
5.62095 14.3431 2.74213 
5.63444 14.4505 0.0300817 
10.1053 13.0252 1.46334 
10.0126 15.7742 1.43487 
8.57724 14.3152 2.97213 
11.4166 14.5693 2.8925 
11.5678 14.3545 0.0170507 
12.9357 12.9901 1.50207 
15.767 12.9215 1.44748 
13.0057 15.7468 1.27018 
15.7701 15.9264 1.45507 
13.0247 15.9063 4.09749 
14.4428 14.555 2.70133 
18.8087 13.0427 1.16268 
18.5918 15.7003 1.36768 
17.2845 14.3822 2.93257 
19.9865 14.4025 2.8443 
21.5666 13.1014 1.39109 
21.289 15.7553 1.28338 
22.8719 14.0574 2.72253 
24.4265 12.8657 1.43718 
24.4202 15.572 1.47405 
27.0848 12.7975 1.39282 
27.2729 15.6215 1.51837 
25.9106 14.2601 3.05529 
25.8901 14.4674 0.00817571 
1.41026 18.5604 1.34101 
2.84173 17.2018 3.06435 
2.87318 20.1268 2.95032 
2.93595 20.1557 0.109353 
2.91882 17.1921 0.0858895 
0.0962458 17.1407 3.00381 
0.121245 19.8631 2.83425 
0.0116549 17.2344 0.062886 
4.26862 18.7196 1.60356 
6.91936 18.7267 1.44706 
5.8376 17.208 2.91215 
5.78049 20.2325 2.8058 
5.68309 17.341 0.0232814 
8.49631 17.3202 0.159708 
10.0478 18.8018 1.38889 
8.77672 17.2962 2.85217 
11.4954 17.4302 2.83549 
8.49235 20.1202 2.5891 
11.5631 20.2035 2.72543 
11.4494 17.146 0.00924333 
11.5144 20.1978 0.0481142 
12.9398 18.5984 1.1772 
15.6348 18.8421 1.38761 
14.3067 17.3152 2.97535 
14.3337 20.2279 2.85497 
18.6244 18.8049 1.55267 
17.2586 17.2884 2.77825 
19.9156 17.2403 2.98395 
17.1629 20.2895 2.68012 
20.0229 20.0237 3.1491 
19.9304 20.2099 0.192244 
22.8226 20.2582 0.0475176 
21.4324 18.7423 1.56712 
24.3585 18.4681 1.49359 
22.8013 16.9133 2.80572 
22.8859 20.1112 3.11016 
22.9485 17.0646 0.180496 
25.8834 20.104 0.0285445 
27.1865 18.4505 1.49161 
25.6902 17.0648 2.84945 
25.6782 20.0247 2.99801 
1.21874 21.5542 1.31048 
2.68118 23.1457 2.79982 
1.37041 24.4498 1.16226 
4.21088 24.4025 1.46222 
4.24604 21.6049 1.56996 
7.11636 21.6182 1.37799 
5.74827 23.0396 2.90711 
6.92183 24.2936 1.35777 
5.58597 22.8432 0.00348207 
9.90105 21.5751 1.2351 
8.42132 23.1346 2.83584 
11.3823 22.9967 2.7767 
9.63652 24.4712 1.53482 
12.8373 21.6581 1.26515 
15.6613 21.7728 1.40179 
14.1581 23.1968 2.7867 
15.7253 24.5931 1.37057 
12.7344 24.4208 1.26682 
17.2367 23.0527 0.0910595 
18.5925 21.5366 1.50588 
16.9923 23.1687 2.75561 
20.1271 23.2214 3.1469 
18.7235 24.4121 1.5745 
20.0611 23.1111 0.335419 
22.8595 23.1754 0.14461 
21.4504 21.548 1.60459 
24.3092 21.3286 1.59574 
22.9697 22.9787 2.95665 
24.2958 24.392 1.5662 
28.6688 23.0344 2.87972 
27.3163 21.3343 1.44399 
27.2844 21.4602 3.96308 
25.9073 23.152 2.67538 
27.3642 24.5241 1.33644 
25.6355 22.899 0.174952 
1.48723 27.3807 1.28177 
2.9253 25.9126 2.84466 
0.0273599 25.9527 2.8271 
4.24435 27.3806 1.36247 
6.98836 27.4309 1.41412 
5.56202 25.8462 2.74716 
5.64226 25.9351 0.116564 
8.5172 28.6107 3.0735 
9.90292 27.382 1.42153 
8.43153 26.0187 2.83845 
11.3376 25.8457 2.84939 
11.4823 28.6973 0.0269125 
14.1424 28.6779 2.7417 
12.8104 27.1266 1.34612 
15.8264 27.2492 1.47837 
14.1972 25.6691 2.70682 
14.4056 28.6855 0.0670507 
18.9392 27.7359 4.07154 
17.1359 28.5979 2.8077 
18.7081 27.4734 1.49026 
17.3876 25.9228 2.73553 
19.9992 25.8823 3.1457 
21.4601 24.7716 1.48464 
21.5822 27.2565 1.42736 
23.0003 25.9784 2.75612 
24.5547 27.295 1.35352 
28.6995 28.6325 2.97057 
27.3472 27.2709 1.29836 
26.0376 25.8806 2.82325 
1.45958 1.41459 4.30557 
1.2751 1.46263 7.20979 
2.73722 3.04214 5.79976 
2.85234 0.160685 6.08998 
0.0316926 2.99946 5.779 
4.3962 1.64004 4.39807 
7.07723 1.49629 4.22933 
4.438 1.6398 7.12876 
7.25171 1.4518 7.08798 
5.96461 2.97955 5.80906 
9.94063 1.40109 4.39951 
10.1225 1.44669 7.2788 
8.58938 2.93982 5.80333 
11.5101 2.72611 5.59005 
11.4874 0.138144 5.64318 
12.931 1.4898 4.26025 
15.6517 1.19155 4.18587 
12.8325 1.42027 7.24101 
15.7938 1.53936 6.99163 
14.2708 3.06333 5.75249 
18.4719 1.43613 4.1025 
18.4775 1.54553 7.16381 
17.3047 2.86319 5.38208 
20.0703 2.98475 5.80489 
17.2001 0.24559 5.69667 
20.1519 0.218559 5.588 
21.5574 1.57645 4.22483 
24.432 1.36326 4.34039 
21.4935 1.52061 7.2217 
24.3869 1.68563 7.33899 
22.8268 3.1046 5.72879 
23.0614 0.0794877 5.94142 
27.2601 1.48753 4.35606 
28.5833 0.144706 5.70474 
27.1743 1.4861 7.10382 
25.6655 3.0834 5.64855 
25.7116 0.0189074 5.91095 
1.40478 4.38172 4.32101 
1.46588 7.16639 4.31677 
1.48829 4.26626 7.38938 
1.30704 7.30396 7.13182 
2.87015 5.71204 5.97325 
4.22421 6.92075 4.36487 
7.204 4.44932 4.30657 
4.51502 4.28953 4.3595 
7.05969 7.19453 4.36298 
7.13461 4.28292 7.42519 
4.41573 7.24374 7.15072 
4.42502 4.39527 7.17003 
5.87496 5.70188 5.84025 
7.4233 7.23905 7.2416 
9.99755 4.17581 4.24035 
10.0811 7.29538 4.19429 
10.2024 4.34986 7.07418 
8.77183 5.71071 5.68336 
10.086 7.3956 7.18572 
11.4197 5.77534 5.58226 
12.9006 4.43411 4.36002 
15.7907 4.4772 4.13601 
12.8368 7.30703 4.60575 
15.7951 7.28582 4.23194 
12.9758 4.36831 7.11067 
15.9755 4.62248 7.08915 
12.7404 7.22069 7.13599 
14.521 5.7121 5.82404 
15.8153 7.24232 7.16391 
18.8579 4.32689 4.16807 
18.7587 7.2421 4.22308 
18.549 4.34448 7.15888 
17.1578 5.90437 5.6433 
18.5225 7.34966 6.98578 
20.0934 5.67341 5.69124 
21.5307 4.414 4.22197 
21.6398 7.3437 4.35782 
24.3029 7.43182 4.218 
24.3284 4.27996 4.30996 
21.3567 4.41954 7.29806 
24.2989 4.38627 7.13627 
21.622 7.24952 7.14367 
22.8953 5.67601 5.80672 
24.4175 7.41301 7.18244 
27.2339 4.62028 4.31564 
27.2281 7.29673 4.19685 
28.6979 5.91152 5.59744 
27.3731 4.44445 7.0555 
25.7778 5.94664 5.77327 
27.2582 7.28191 7.10138 
1.32674 10.1375 4.23481 
1.43161 10.1103 7.15539 
2.86727 8.66903 5.71925 
3.06426 11.3815 5.84194 
0.114642 8.70596 5.56992 
4.30663 9.9569 4.41195 
7.3355 9.89797 4.16064 
4.44473 9.83563 7.17053 
5.84489 8.46758 5.74975 
7.22653 9.94921 7.24343 
5.80829 11.2841 5.58708 
8.78193 8.96953 5.79144 
10.068 10.2963 7.17487 
11.328 8.76502 5.73657 
8.5878 11.5978 5.62024 
11.3962 11.6236 5.60356 
12.8215 10.1035 4.22971 
15.8138 10.1878 4.14978 
13.0104 9.98284 7.18145 
14.3811 8.67691 5.65817 
15.7777 10.1336 7.15809 
14.2148 11.4847 5.73961 
18.632 10.1182 4.13658 
17.2701 8.78281 5.65352 
18.7585 10.0924 7.26466 
20.0941 8.69981 5.71458 
17.307 11.4593 5.77754 
20.292 11.4502 5.87191 
21.4829 10.1693 4.22952 
24.3939 10.0782 4.18255 
21.5837 10.044 7.2117 
22.9475 8.80393 5.66908 
22.9658 11.6054 5.59664 
24.3447 10.1122 7.13043 
27.2395 9.94654 4.19138 
28.6194 11.4931 5.73066 
25.8728 8.75437 5.53689 
27.4385 10.0325 7.18023 
25.9025 11.4589 5.75092 
1.45072 12.7315 4.38367 
1.32746 15.7141 4.49889 
1.40454 12.9722 7.09888 
1.30696 15.7565 7.20081 
2.8905 14.1617 5.89007 
4.2129 12.9863 4.29112 
4.24482 15.8042 4.35208 
7.20365 12.8258 4.30899 
7.16232 15.7118 4.28753 
4.5059 12.8453 7.20604 
4.33342 15.8336 7.33578 
7.0479 13.0169 7.11396 
5.64546 14.2316 5.65604 
7.05594 15.6376 7.17498 
10.1377 12.9585 4.20105 
10.0018 15.8 4.38645 
10.0585 12.9852 7.14652 
8.60864 14.3584 5.59272 
9.93649 15.5712 7.13881 
11.4046 14.2612 5.69736 
12.99 12.8314 4.11157 
15.9333 12.8997 4.32353 
15.8247 15.8346 4.46929 
12.9066 12.9751 6.962 
15.8433 12.8344 7.03115 
12.9932 15.6013 7.02972 
14.3785 14.2648 5.58534 
15.9133 15.7162 7.23098 
18.8234 12.5833 4.34869 
18.6354 15.6659 4.45292 
18.7442 12.9368 7.11652 
17.3103 14.2717 5.88472 
18.6221 15.8031 7.21436 
19.9316 14.3897 5.80665 
21.3839 13.0768 4.26504 
21.3999 15.5661 4.30628 
24.5124 12.86 4.30621 
24.3117 15.5941 4.25904 
21.4594 12.8351 7.18227 
21.5168 15.9881 7.32252 
22.9437 14.2865 5.74195 
24.3789 12.9144 7.27652 
24.2472 15.9356 7.31063 
27.385 12.6733 4.23821 
27.2693 15.6492 4.14939 
28.603 14.4222 5.7283 
27.3045 12.9266 7.13575 
25.9508 14.2741 5.70531 
27.3153 15.9087 7.18827 
1.24303 18.7511 4.52456 
1.44867 18.8227 7.25049 
2.87194 17.4638 5.73422 
3.01333 20.0942 5.66771 
4.35699 18.7699 4.15996 
7.29518 18.7607 4.24478 
4.39876 18.7113 7.30639 
5.71127 17.1542 5.80605 
7.2339 18.5568 7.14596 
5.82136 20.3012 5.77543 
10.0675 18.8537 4.203 
8.49889 17.1196 5.71807 
9.98126 18.6533 7.05301 
11.3375 17.3081 5.64306 
8.48149 20.2877 5.73576 
11.3566 20.01 5.65255 
12.9073 18.7603 4.43234 
15.8422 18.7573 4.47516 
13.0426 18.8942 7.21146 
14.3357 17.314 5.6344 
15.791 18.5389 7.12082 
14.3447 20.2389 5.78225 
18.4452 18.6462 4.3758 
17.3185 17.2416 5.71494 
18.5829 18.709 7.1019 
20.1643 17.1943 5.88881 
17.1691 20.3162 5.79074 
20.1184 20.0315 5.65138 
21.6221 18.564 4.39025 
24.3882 18.4682 4.1702 
21.5288 18.7762 7.22487 
23.0562 17.2316 5.58692 
22.8609 19.969 5.72773 
24.3939 18.6654 7.2575 
27.3203 18.6258 4.2751 
28.6201 17.2982 5.77272 
28.6483 20.1233 5.81101 
25.8253 16.9467 5.64015 
27.2963 18.6591 7.3725 
25.8109 19.8049 5.68041 
1.4697 21.3556 4.21242 
1.47733 24.5903 4.24791 
1.51384 21.3475 7.26209 
2.75407 23.1149 5.67176 
0.164311 22.9291 5.65422 
4.17391 21.6207 4.29367 
4.35516 24.4647 4.20328 
7.25619 21.6275 4.1477 
7.01159 24.5778 4.29609 
4.12488 21.5643 7.25685 
7.23073 21.741 7.18105 
5.67219 23.0035 5.67213 
7.1787 24.4671 7.13506 
4.33817 24.5882 7.10895 
10.1394 21.5043 4.21593 
9.8396 24.4639 4.20443 
10.0189 21.5887 7.06479 
8.53719 22.8969 5.68299 
11.3541 23.0522 5.70695 
10.0161 24.4136 7.08604 
12.7187 21.6235 4.2366 
15.7967 21.6552 4.32489 
12.763 24.4188 4.26975 
15.8089 24.5021 4.19864 
12.9757 21.5511 7.2326 
15.5941 21.7562 7.14506 
14.3203 22.9436 5.54723 
15.1838 24.0663 7.47991 
12.8952 24.2193 7.09256 
18.5742 21.5846 4.25493 
18.4869 24.4036 4.40278 
18.5094 21.6629 7.09301 
17.157 22.9832 5.74303 
20.0849 23.0777 5.7294 
18.7651 24.5974 7.08254 
21.6644 21.6713 4.36384 
24.5035 21.5467 4.23494 
21.6882 24.5317 4.36039 
21.6304 21.5137 7.0676 
22.9895 23.1401 5.69819 
24.4413 24.46 6.99712 
24.2728 21.5134 6.90553 
21.5562 24.5811 6.95857 
27.4174 24.5959 4.33979 
27.1565 21.5661 6.96353 
25.8603 23.2015 5.57515 
27.4523 24.5013 7.02213 
1.43538 27.436 4.41566 
1.46465 24.664 7.10238 
1.47399 27.2322 7.28972 
2.95448 26.0008 5.65671 
0.0718381 26.062 5.6996 
4.18763 27.6017 4.23393 
6.90669 27.1928 4.16192 
5.77489 28.6024 5.87764 
4.32908 27.3256 7.29892 
5.6606 25.9964 5.6765 
7.18189 27.2208 7.21392 
9.88576 27.1027 4.40972 
8.42066 28.7118 5.62141 
8.30681 25.6386 5.84331 
10.0618 27.3755 7.19187 
11.5221 26.0015 5.70114 
12.8472 27.3289 4.15275 
15.4903 27.3036 4.13168 
14.1373 28.6611 5.5928 
12.8192 27.3499 7.18727 
14.2195 25.7621 5.75445 
15.6791 27.6158 7.18112 
17.4466 26.5849 4.94027 
16.7089 25.3921 6.60123 
18.6233 27.4502 6.97602 
20.1112 25.9587 5.65657 
24.4237 24.6913 4.23301 
21.5493 27.3185 4.16089 
24.4676 27.2322 4.47115 
21.4227 27.2854 7.27054 
23.0389 25.8733 5.66383 
24.3811 27.3249 7.26145 
27.1786 27.3634 4.43849 
25.9433 25.931 5.87612 
27.3224 27.4679 7.28327 
3.13383 2.88179 8.77147 
2.95552 0.11948 8.64953 
0.141158 0.0696632 8.65498 
1.46592 1.2316 10.3352 
2.90298 2.84915 11.7062 
2.91923 0.030576 11.5948 
0.137664 2.93516 11.406 
5.76885 2.81615 8.72567 
5.70103 0.181724 8.65453 
4.34194 1.27016 10.2909 
7.36071 1.40875 9.86728 
5.93555 2.86413 11.6099 
8.70491 2.85243 8.56165 
11.4177 3.12044 8.73298 
11.4174 0.126863 8.77584 
8.65101 0.00462919 11.522 
10.0434 1.45846 9.9026 
8.57541 2.83378 11.5351 
11.3186 2.86328 11.5088 
14.3315 3.17245 8.67554 
14.373 0.08121 8.64832 
14.2694 0.132673 11.5653 
12.8028 1.46967 10.0889 
15.743 1.53094 10.0913 
14.431 2.82325 11.6912 
17.075 2.99911 8.63603 
20.0602 3.00038 8.8238 
17.1799 0.0513228 8.68317 
20.0369 0.089048 8.63125 
19.9522 0.0434108 11.4453 
17.2101 0.0585314 11.304 
18.5983 1.45034 9.96455 
17.2632 2.7753 11.527 
20.0242 3.00622 11.5633 
22.7461 3.06627 8.70792 
22.806 0.101339 8.65892 
21.5959 1.63967 10.3238 
23.0326 2.88669 11.4833 
24.4452 1.40415 10.1912 
28.6404 2.80191 8.7295 
25.7653 2.8905 8.71121 
25.9106 0.0692572 8.54157 
28.6628 0.0852061 11.5372 
27.1977 1.45889 10.1518 
25.847 3.05312 11.4677 
2.95479 6.03413 8.61161 
1.61061 4.49031 9.88116 
1.3734 7.00599 10.1743 
2.91424 5.65454 11.4853 
5.70629 5.76745 8.68195 
4.35402 4.37266 10.1251 
4.27071 7.25632 9.93142 
7.26692 4.29755 9.94112 
7.33614 7.16759 10.1597 
5.77904 5.82415 11.5745 
8.68308 5.71711 8.45717 
11.47 5.82693 8.64471 
10.0511 4.43996 10.0128 
10.1294 7.21012 10.1575 
8.7315 5.75556 11.5612 
11.661 5.75313 11.6095 
14.4565 5.71462 8.65352 
12.7993 4.3333 10.1727 
15.8006 4.34312 10.2015 
13.0426 7.11231 10.0762 
15.6176 7.04881 10.1148 
14.4122 5.66293 11.5795 
17.2365 5.88767 8.73418 
20.0524 6.01371 8.50645 
18.546 4.51797 10.002 
18.6724 7.24272 10.0593 
17.3603 5.69322 11.5455 
19.9665 5.73246 11.4256 
23.04 5.88469 8.55528 
21.4371 4.53119 10.1615 
21.402 7.24187 9.98466 
22.9323 5.79107 11.6632 
24.3472 4.28627 10.0065 
24.5522 7.14864 10.1238 
28.676 5.82022 8.48431 
25.8638 5.66203 8.5931 
28.6375 5.73595 11.4851 
27.2767 4.32796 10.032 
27.266 7.22373 9.99511 
26.0452 5.75151 11.4494 
2.79792 8.5851 8.53423 
2.81713 11.3739 8.63151 
0.0137035 8.70525 8.70478 
0.318412 11.6129 8.55343 
1.49144 9.97513 10.0105 
3.06749 8.61402 11.5016 
2.87164 11.6432 11.3833 
0.119753 11.5021 11.4044 
5.93163 8.56002 8.72001 
5.76299 11.4015 8.51343 
4.47365 10.0496 9.83645 
7.47547 10.1635 9.82201 
5.73169 8.86876 11.5262 
5.712 11.4951 11.3747 
8.7045 8.73455 8.65318 
11.431 8.76276 8.60059 
8.4973 11.6852 8.36087 
11.6662 11.6536 8.49097 
11.5523 8.65239 11.415 
10.2049 10.3075 10.0957 
8.76604 8.67869 11.5437 
8.77549 11.5132 11.2818 
11.677 11.5332 11.598 
14.3632 8.58202 8.58058 
14.2951 11.4377 8.49701 
12.864 10.103 10.1142 
15.7101 10.0442 10.0138 
14.3026 8.66313 11.4233 
14.3399 11.4483 11.5534 
17.0807 8.59436 8.73887 
20.1122 8.6234 8.59568 
17.1272 11.4882 8.6293 
20.1569 11.3619 8.56373 
18.5917 10.2318 9.94341 
17.174 8.40172 11.5321 
19.9767 8.79268 11.4549 
17.1577 11.3406 11.6184 
20.2454 11.378 11.7074 
22.9797 8.68244 8.79826 
23.0313 11.6869 8.60367 
21.5574 10.0238 10.0222 
22.9585 8.37917 11.678 
23.0704 11.3929 11.6262 
24.4771 10.1099 9.95237 
25.8632 8.7724 8.59694 
25.9667 11.3436 8.57038 
28.7012 8.68879 11.4028 
27.2892 10.2296 9.99372 
25.8345 8.7064 11.4383 
25.9076 11.4068 11.5376 
2.86172 14.3846 8.65078 
1.5319 13.082 10.1462 
1.65678 15.6935 10.0142 
3.07795 14.5295 11.6166 
0.0267812 14.4878 11.4759 
5.57223 14.2671 8.55809 
4.33896 13.0768 10.0365 
4.41109 16.0428 9.95358 
7.09553 12.8107 10.0205 
7.20467 15.8404 10.0472 
5.93092 14.2755 11.4921 
8.68848 14.3487 8.5476 
11.5404 14.3496 8.5132 
10.017 12.8354 9.94506 
10.2237 15.7303 10.0011 
8.63281 14.4545 11.7213 
11.6206 14.3291 11.3768 
14.5035 14.3274 8.58104 
12.9555 12.9892 10.0953 
15.782 12.8122 10.2169 
13.0536 15.8244 9.84986 
15.9587 15.8466 10.0367 
14.4082 14.2986 11.3787 
17.2518 14.2766 8.75053 
20.2025 14.3457 8.73263 
18.8028 12.9274 10.2815 
18.8384 15.8428 9.99285 
17.4656 14.3101 11.4128 
20.0693 14.5444 11.6879 
22.8771 14.2749 8.7771 
21.6647 12.7608 10.1982 
21.643 15.7504 10.2503 
23.026 14.2451 11.7024 
24.3858 15.6925 10.4425 
24.3606 12.6464 10.1702 
28.6893 14.4512 8.7304 
25.8859 14.4683 8.59521 
27.2091 12.9366 9.76932 
27.1362 15.7746 9.97786 
25.8464 14.3022 11.6633 
2.95175 17.3758 8.83982 
2.83456 20.0579 8.70105 
0.0877038 20.1955 8.61697 
0.0957049 17.2278 8.66826 
1.27135 18.6246 10.0662 
2.87399 17.283 11.629 
2.92133 19.9685 11.4401 
0.10205 20.0642 11.4471 
5.7866 17.3678 8.68629 
5.83045 20.1405 8.57298 
4.45765 18.7475 9.98639 
7.39174 18.6618 10.0283 
5.93667 17.356 11.4133 
5.85638 20.2656 11.4733 
8.65072 17.2441 8.53564 
11.5879 17.3147 8.31476 
8.61464 20.1961 8.58731 
11.491 20.1108 8.54438 
10.15 18.5702 9.8674 
8.76866 17.1321 11.4123 
11.4164 17.1636 11.3444 
8.74543 20.0466 11.4478 
11.3904 19.9822 11.4036 
14.2496 17.149 8.38714 
14.2458 20.1426 8.67746 
12.9225 18.4835 9.94761 
15.8544 18.5662 9.96643 
14.5434 17.0924 11.2784 
14.3317 20.0483 11.4955 
17.192 17.2725 8.43598 
20.0476 17.2833 8.68764 
17.1418 20.2019 8.53621 
20.1368 20.1081 8.46068 
18.518 18.696 9.84329 
17.3061 17.359 11.3955 
20.12 17.1174 11.6632 
17.2421 20.1205 11.3666 
20.1118 20.1465 11.4795 
22.9511 17.1139 8.78801 
23.0365 20.1033 8.45862 
21.5534 18.5969 9.98329 
22.8568 17.0659 11.7091 
22.7577 19.9631 11.4345 
24.4088 18.6134 10.0346 
25.7474 17.1802 8.78381 
25.7991 20.1633 8.45821 
28.6975 17.0846 11.599 
27.3274 18.6936 10.1214 
25.7913 17.1436 11.6111 
25.8592 20.0873 11.3896 
2.79617 23.0239 8.65506 
1.34379 24.2281 9.98894 
1.43488 21.508 10.0836 
2.9667 22.8426 11.5723 
5.72314 23.0197 8.62623 
4.44697 24.3137 10.2117 
7.34357 24.5885 10.0105 
4.37548 21.5085 10.0995 
7.39424 21.7851 10.0202 
5.75551 22.943 11.4957 
8.91304 22.8619 8.53319 
11.3615 22.9539 8.52917 
9.97994 21.485 10.0523 
8.79627 22.9656 11.5184 
11.4343 22.8896 11.6055 
14.0973 22.7435 9.04272 
15.8439 21.5782 9.89358 
12.5696 21.4962 10.0594 
15.6351 24.4287 9.95436 
12.8621 24.563 10.0754 
14.3287 23.1585 11.6639 
17.1884 23.2306 8.35386 
20.0398 23.13 8.48067 
18.5589 24.4746 10.05 
18.6974 21.522 9.9896 
20.1872 23.0787 11.4095 
17.1469 22.9633 11.3426 
22.9032 23.1181 8.50819 
24.4048 21.6215 9.85668 
22.706 22.9138 11.5485 
24.3586 24.3544 9.98524 
21.4781 24.3408 10.0318 
21.5249 21.4334 10.0596 
28.6808 23.2023 8.48378 
25.7049 22.9387 8.47372 
28.5846 22.9335 11.6076 
27.2253 24.552 9.85085 
25.8725 22.8577 11.2053 
27.2499 21.6582 9.82236 
2.86569 25.815 8.80508 
0.026186 25.9925 8.6977 
2.81836 25.9471 11.5724 
1.43164 27.2271 10.1723 
5.69891 25.8919 8.70733 
5.90521 25.8871 11.7017 
4.27876 27.2559 10.117 
5.97544 28.6048 11.4337 
7.25793 27.1547 10.1079 
8.66154 28.4859 8.66078 
8.72076 25.9181 8.59206 
11.5907 25.8643 8.56086 
10.0367 27.3199 10.1319 
8.7232 25.8577 11.5863 
11.6353 25.8139 11.6214 
11.4852 28.662 11.5091 
10.0527 24.6548 10.0254 
14.3402 25.8305 8.65356 
12.9017 27.3261 10.114 
15.647 27.417 10.1542 
14.3083 26.0069 11.5616 
16.8203 25.9895 8.77934 
20.0996 25.8382 8.49651 
19.9424 25.7054 11.3053 
18.6685 27.2976 9.96312 
17.0821 26.0323 11.417 
22.9209 25.9056 8.53979 
24.5828 27.4001 9.91978 
23.0176 25.8563 11.3316 
21.4789 27.32 10.0707 
22.8518 28.5254 11.5038 
25.8589 26.0651 8.37844 
28.6279 25.7329 11.4861 
25.9541 25.92 11.4794 
27.2941 27.4243 9.98862 
25.7334 28.6961 11.6959 
1.37601 1.62586 12.9566 
0.0065198 2.90035 14.3557 
1.35648 1.66506 15.7451 
2.90473 2.79707 14.3719 
4.46144 1.40157 12.9494 
7.44505 1.52465 13.0633 
4.38857 1.37359 15.7584 
7.38654 1.4746 15.8255 
5.85175 2.83474 14.4547 
5.85434 0.0375369 14.4217 
10.1357 1.41522 12.9791 
8.78978 2.94435 14.351 
10.1685 1.39386 15.8063 
11.6008 0.0289501 14.4407 
11.5741 3.01419 14.42 
8.66729 0.129807 14.5538 
12.9282 1.50881 13.1066 
15.8682 1.14681 13.0022 
12.981 1.47667 15.9158 
15.9432 1.3723 15.6638 
14.5169 2.89758 14.4458 
14.38 0.0366467 14.5322 
18.6882 1.42206 12.9168 
18.7531 1.44574 15.89 
17.2117 2.88033 14.3576 
20.0305 2.94752 14.3633 
21.3716 1.42088 12.8879 
24.3255 1.38394 12.7439 
22.9821 2.76533 14.3298 
21.4113 1.46352 15.6421 
24.5541 1.3571 15.6631 
27.4511 1.71006 12.7997 
25.82 3.0154 14.2283 
25.818 0.0893564 14.0453 
27.3614 1.3367 15.7218 
1.55258 4.39003 13.047 
1.37869 7.30695 12.7234 
1.53539 4.39422 15.7861 
1.50184 7.45322 15.9488 
2.93717 5.79892 14.4212 
7.23438 4.47857 12.9608 
4.30022 4.4014 13.0757 
4.22676 7.22411 12.8948 
7.12215 7.30641 12.7692 
4.34515 7.19385 15.948 
4.40598 4.42749 15.8495 
7.07638 4.3316 15.7655 
7.28378 7.19735 15.8747 
5.88875 5.76562 14.3777 
10.1457 4.2161 12.9663 
10.0719 7.34006 12.9173 
8.45117 5.85822 14.3033 
9.90923 4.48488 15.7651 
10.1168 7.19669 15.8305 
11.4866 5.98611 14.3659 
12.7842 4.34037 12.8758 
15.8456 4.26203 13.0211 
12.6838 7.20499 12.9648 
15.6469 7.28586 12.7541 
14.3242 5.75308 14.2503 
13.0043 4.44103 15.878 
16.029 4.3831 15.95 
12.989 7.32994 15.8694 
15.7516 7.19371 15.6761 
18.5573 4.35491 12.9741 
18.6443 7.15155 12.8784 
19.9185 5.7641 14.2596 
18.6786 4.33195 15.7696 
18.7532 7.05719 15.9532 
17.2142 5.92447 14.3818 
24.471 4.43242 12.8997 
21.6478 4.29412 13.079 
21.3148 7.17075 12.905 
24.6041 7.26488 13.0054 
21.4065 4.33171 15.7338 
24.4575 4.34614 15.7073 
21.646 7.24086 15.9172 
24.3999 7.13821 15.8258 
22.915 5.84344 14.4738 
27.2941 4.39938 13.1004 
27.4603 7.38292 12.8907 
27.4007 4.28132 15.8572 
27.3069 7.15027 15.9504 
25.8874 5.99761 14.4219 
28.6763 5.92484 14.4234 
1.66018 10.0505 12.7676 
1.45983 10.0802 15.8652 
0.00201916 11.3432 14.4051 
0.0399131 8.64588 14.4195 
2.89196 8.52884 14.4553 
2.83939 11.4403 14.4388 
4.42706 10.0548 13.0446 
7.55894 10.206 12.975 
5.68987 8.53406 14.3338 
5.7154 11.5041 14.3137 
4.41676 10.0111 15.8158 
7.16777 9.82863 15.9572 
10.0729 10.0877 12.8929 
11.4517 8.73777 14.2326 
11.5353 11.6858 14.2089 
10.0027 10.0944 15.7648 
8.66809 8.60106 14.3784 
8.82861 11.7774 14.3732 
13.1518 10.1812 12.7935 
15.7428 9.92079 12.7122 
14.4636 11.5467 14.3161 
14.4478 8.85881 14.2779 
12.8449 10.0619 15.784 
15.6862 10.1475 15.643 
18.5309 10.017 12.9307 
17.2556 11.4662 14.3093 
17.0362 8.64053 14.2151 
18.5915 10.0758 15.9363 
19.8893 8.61587 14.4794 
20.1501 11.3088 14.4244 
21.6397 9.90881 13.0457 
24.5125 9.77439 13.0598 
21.6905 9.93109 15.9326 
24.2495 9.92169 15.6821 
22.9523 11.2899 14.3831 
22.9109 8.43685 14.4645 
27.3992 10.0969 12.9408 
27.27 10.0382 15.8996 
26.0448 8.76937 14.5223 
25.7479 11.3124 14.3917 
1.45254 13.0169 12.8987 
1.41601 15.7432 12.896 
2.81681 14.4998 14.2268 
0.0419443 14.4108 14.4143 
1.50573 13.0141 15.7501 
1.3596 16.0049 15.9229 
4.31522 12.8266 13.0933 
4.68161 15.6238 12.8206 
7.39094 12.8702 12.9496 
7.22462 15.6047 13.0912 
5.87111 14.1467 14.1852 
4.38575 15.7559 15.6626 
4.33917 12.9333 15.6991 
7.29745 13.0539 15.7941 
7.04299 15.7216 15.8195 
10.2851 12.982 12.9172 
10.3415 15.7416 12.8328 
10.2398 12.8687 15.9407 
9.96565 15.7372 15.9009 
11.6834 14.4869 14.4235 
8.77912 14.4809 14.4216 
12.7377 13.0671 12.941 
15.8044 12.9708 12.97 
13.0468 16.0346 12.9105 
15.6782 15.642 12.8881 
12.9756 12.8801 15.8159 
15.9272 12.7404 15.8013 
12.982 15.8759 15.8448 
15.62 15.8466 15.6709 
14.3531 14.293 14.4078 
20.0081 14.3054 14.3376 
18.7088 12.7919 12.86 
18.4265 15.9668 12.9592 
18.5336 12.8036 15.7757 
18.7669 15.8068 15.6684 
17.2018 14.2969 14.5005 
21.5603 13.0005 12.8712 
21.4851 15.7491 13.1567 
24.4556 12.7449 13.0428 
24.2974 15.828 13.0602 
23.1041 14.1908 14.2871 
21.4014 12.8228 15.7279 
21.5559 15.6212 15.7153 
24.4243 15.847 15.8226 
27.3194 12.9755 13.1589 
27.2706 15.7349 12.9683 
25.8738 14.389 14.3509 
24.6498 12.9214 15.7336 
27.361 12.8504 15.8897 
27.397 15.8175 15.8809 
0.0640138 17.3251 14.2505 
1.49163 18.8356 13.0068 
1.27551 18.6673 15.734 
2.92561 19.9847 14.4793 
3.04302 17.2214 14.3622 
4.43086 18.6633 12.9226 
7.21327 18.5633 12.8584 
5.98093 20.1059 14.255 
5.99429 17.2467 14.3456 
4.33668 18.6851 15.5809 
7.18459 18.5939 15.8717 
10.1257 18.6191 12.8189 
8.74382 17.14 14.316 
11.5342 20.1166 14.4154 
11.5612 17.196 14.5023 
10.1594 18.8056 15.84 
8.77422 19.9401 14.5744 
14.3847 17.2663 14.2899 
12.7292 18.5243 12.9461 
15.7069 18.6643 12.9479 
14.3229 20.2915 14.3989 
12.8358 18.7546 15.7913 
15.6582 18.7985 15.8089 
18.691 18.6545 12.9419 
20.1515 17.2282 14.5048 
17.1328 17.3201 14.5138 
18.8549 18.6989 15.8344 
17.1468 20.0398 14.393 
19.9823 20.2765 14.4816 
21.3772 18.6677 13.0106 
24.3503 18.7291 12.878 
23.0853 17.3716 14.2563 
23.0164 20.1317 14.1655 
21.5691 18.8138 15.8552 
24.4557 18.6992 15.9728 
28.5597 20.1125 14.2424 
27.3853 18.6802 12.6897 
25.782 17.4721 14.3625 
27.3195 18.5451 15.8199 
26.0132 20.0359 14.3602 
1.43056 21.6865 12.9209 
1.52842 24.3394 12.7519 
0.101228 22.9925 14.2865 
2.95277 23.0952 14.3663 
1.42908 21.6406 16.0035 
1.34957 24.562 15.8165 
5.93626 22.9538 14.2894 
4.29456 24.312 12.9326 
7.26371 24.3674 12.812 
4.36685 21.411 13.0985 
7.43018 21.5192 12.9393 
4.60677 21.7112 15.6805 
7.45577 21.5963 15.7829 
4.43845 24.5625 15.771 
7.41105 24.4376 15.8964 
8.8011 23.0987 14.295 
10.2886 24.4558 13.0573 
10.0225 21.4476 12.8982 
11.4753 22.7748 14.3285 
10.216 21.5425 15.967 
9.98134 24.5571 15.8038 
12.911 21.4774 12.9736 
15.7562 21.5384 12.8239 
15.8243 24.5963 12.6972 
12.9094 24.4839 13.0652 
14.4058 23.0372 14.2611 
13.0505 21.5973 15.848 
15.8814 21.5152 15.7518 
12.9534 24.3856 15.7565 
16.0128 24.2459 15.859 
17.208 22.9202 14.1944 
18.617 24.3362 12.915 
20.0744 22.8108 14.2836 
18.5703 21.5069 12.9261 
18.6281 21.5326 15.8987 
18.6873 24.1436 15.8156 
21.5474 21.4076 12.9658 
24.4207 21.4766 12.6686 
21.4668 24.2937 12.8682 
24.3779 24.3325 12.6976 
22.9396 22.9537 14.1462 
21.6952 21.6826 15.5821 
24.5429 21.4273 15.5257 
24.2526 24.2584 15.77 
21.3875 24.3111 15.823 
25.8113 22.9782 14.3449 
27.2927 21.4623 12.7365 
27.2251 24.2119 12.963 
27.3834 21.5257 15.8035 
27.0609 24.4158 15.7566 
2.8932 25.7236 14.3488 
1.40021 27.3275 12.9818 
2.96788 28.6932 14.1895 
1.52347 27.3522 15.6797 
7.35827 27.278 12.9342 
4.49711 27.3638 13.0333 
5.8435 25.7186 14.2252 
4.44225 27.1702 15.8729 
7.341 27.3909 15.9014 
10.1085 27.4847 12.969 
11.5194 25.8783 14.4485 
10.2727 27.3321 15.8383 
8.64102 26.011 14.4355 
12.9324 27.292 13.1317 
15.7127 27.4783 12.9985 
13.0389 27.2864 15.8511 
15.9329 27.2728 15.8339 
14.3551 25.7557 14.4484 
18.6136 27.1829 12.7685 
17.331 28.5253 14.3461 
18.6308 27.2991 15.7646 
20.1992 28.694 14.4315 
17.3956 25.8482 14.3605 
20.0277 25.8234 14.3971 
21.3841 27.0772 12.8154 
24.3469 27.0803 12.7725 
22.936 28.6096 14.3068 
21.5649 27.1719 15.7349 
24.2402 27.0228 15.6861 
22.8262 25.5309 14.4161 
27.3449 27.2541 12.816 
25.8094 25.792 14.2068 
28.6998 28.6425 14.1409 
28.6862 25.7425 14.2467 
27.1317 27.216 15.5724 
1.50684 1.35831 18.615 
3.07279 2.92625 17.0639 
0.142792 2.95124 17.311 
2.93383 3.01355 20.1116 
4.33127 1.23677 18.754 
7.34126 1.55962 18.7221 
5.96563 3.06501 17.3809 
5.96901 0.204929 17.2713 
5.71719 2.89064 20.0328 
10.2059 1.49596 18.6893 
8.52948 3.02547 17.3528 
11.4895 2.98165 17.195 
11.7324 0.0503009 17.1975 
8.72574 0.207878 17.1791 
8.56369 2.96214 20.1949 
11.4797 3.14293 20.0008 
8.58509 0.189348 20.197 
12.9283 1.41468 18.6854 
15.7965 1.37886 18.8003 
14.3966 2.78616 17.0994 
14.3893 0.0989616 17.1812 
14.3298 2.91667 20.0392 
18.6824 1.57445 18.7579 
17.1085 2.7143 17.1516 
20.1369 2.83728 17.1908 
20.1134 0.0199578 17.3869 
18.5731 4.08051 18.6615 
17.1698 2.8346 20.2326 
19.9799 2.89862 20.1 
20.2536 0.160461 20.1968 
17.135 0.0165679 20.0033 
21.6605 1.5346 18.6954 
22.8675 2.97378 17.1124 
24.3585 1.43402 18.5915 
22.9417 0.0204824 17.1804 
23.0736 2.83931 20.1509 
27.315 1.2686 18.3959 
25.9728 2.68811 17.0403 
28.6782 2.82691 20.1136 
25.7767 2.66418 20.0099 
1.26176 4.27704 18.778 
1.41799 7.15753 18.7929 
2.79666 5.66521 17.2273 
3.04269 5.74715 20.0543 
4.43916 4.26933 18.5497 
4.35973 7.15752 18.6365 
7.17572 4.41432 18.6847 
5.8411 5.88775 17.2477 
7.06693 7.32594 18.8577 
5.68838 5.81759 20.0298 
10.0274 4.4555 18.454 
8.56567 5.76716 17.0768 
10.0709 7.02856 18.6611 
11.4633 5.79622 17.0577 
8.6393 5.65015 20.031 
11.5756 5.56384 20.0105 
12.9277 4.21249 18.7063 
15.6328 4.30968 18.685 