ITEM: TIMESTEP
63069
ITEM: NUMBER OF ATOMS
2001
ITEM: BOX BOUNDS pp pp pp
0.0000000000000000e+00 2.8712000000000000e+01
0.0000000000000000e+00 2.8712000000000000e+01
0.0000000000000000e+00 2.8712000000000000e+01
ITEM: ATOMS x y z c_cna 
1.43666 1.4472 1.42453 3 
2.87204 2.88217 2.8606 3 
2.87157 0.011248 2.86003 3 
0.00175025 2.88269 2.86036 3 
0.00151577 0.0113849 2.85984 3 
4.30667 1.44736 1.42412 3 
7.17731 1.44759 1.42302 3 
5.74279 2.88209 2.8603 3 
5.74148 0.0121264 2.85894 3 
10.0462 1.4503 1.41984 3 
8.6127 2.88332 2.85906 3 
11.4834 2.88491 2.85724 3 
11.4785 0.0185422 2.85048 3 
8.61286 0.0119155 2.85745 3 
12.918 1.45252 1.41749 3 
15.7927 1.45434 1.41565 3 
14.3562 2.88605 2.85566 3 
14.353 0.0228044 2.84626 3 
18.6695 1.45637 1.4139 3 
17.2309 2.88761 2.85419 3 
20.1058 2.88914 2.85397 3 
20.1184 0.0298266 2.83994 3 
17.2348 0.0269596 2.84191 3 
22.9752 2.88676 2.85765 3 
24.4108 1.45069 1.42093 3 
22.9777 0.0173568 2.85382 3 
21.5447 1.45633 1.41457 3 
27.2791 1.44806 1.42368 3 
25.8441 2.88416 2.85942 3 
25.8442 0.0128847 2.85835 3 
1.43683 4.31808 1.42508 3 
1.43644 7.18857 1.42535 3 
2.87205 5.75287 2.86094 3 
0.00153162 5.75357 2.86076 3 
4.30728 4.31773 1.425 3 
7.17761 4.31828 1.42426 3 
4.30698 7.18816 1.42524 3 
7.17783 7.18831 1.42481 3 
5.74276 5.75288 2.86076 3 
10.0483 4.31927 1.42315 3 
10.0491 7.18874 1.4244 3 
8.61365 5.75327 2.86031 3 
11.4849 5.7537 2.85973 3 
12.92 4.32007 1.42215 3 
15.7927 4.32089 1.42133 3 
12.9206 7.18917 1.42403 3 
15.7925 7.18961 1.42374 3 
14.3567 5.75414 2.85907 3 
18.6661 4.32189 1.42071 3 
18.6645 7.19013 1.42361 3 
17.2289 5.75483 2.85858 3 
20.1013 5.75563 2.85858 3 
24.4092 4.32077 1.42317 3 
21.5391 4.32235 1.42105 3 
21.5364 7.19052 1.42384 3 
22.9726 5.75554 2.85953 3 
24.4076 7.19022 1.42455 3 
27.2789 4.31908 1.4245 3 
27.2781 7.18943 1.4251 3 
25.8433 5.75471 2.86026 3 
1.43551 10.0588 1.4252 3 
2.87137 8.62337 2.86089 3 
2.87021 11.4936 2.86045 3 
2.50941e-05 11.4946 2.8608 3 
0.000779981 8.62407 2.86095 3 
4.30597 10.0581 1.42475 3 
7.17697 10.0579 1.42409 3 
5.74228 8.62318 2.86067 3 
5.74077 11.4928 2.85984 3 
10.0487 10.0583 1.42383 3 
8.61353 8.62341 2.86032 3 
11.4851 8.62383 2.86007 3 
8.61201 11.4928 2.8589 3 
11.4844 11.4936 2.85881 3 
12.9207 10.0589 1.42384 3 
15.7926 10.0593 1.42397 3 
14.3566 8.62421 2.85993 3 
14.3567 11.4942 2.85915 3 
18.6643 10.0596 1.42423 3 
17.2282 8.62459 2.85992 3 
20.0999 8.62495 2.86007 3 
17.2285 11.4946 2.85963 3 
20.0998 11.4949 2.86015 3 
21.5357 10.06 1.42459 3 
22.9712 8.62508 2.86043 3 
22.9708 11.4953 2.86058 3 
24.4066 10.0601 1.42504 3 
27.2772 10.0596 1.4253 3 
25.8422 8.62481 2.86075 3 
25.8415 11.4952 2.86081 3 
1.4347 12.9292 1.42463 3 
1.43442 15.8002 1.42383 3 
2.86932 14.3641 2.85967 3 
4.3026 15.7976 1.42118 3 
4.30422 12.9276 1.42341 3 
7.17427 12.926 1.42133 3 
7.16856 15.792 1.41489 3 
5.73811 14.3616 2.85801 3 
10.0472 12.9265 1.42095 3 
10.0438 15.792 1.41418 3 
8.6075 14.3592 2.85432 3 
11.4825 14.3607 2.85441 3 
12.9206 12.9275 1.42144 3 
15.7933 12.9282 1.42213 3 
12.9206 15.7939 1.4158 3 
15.7954 15.7956 1.41749 3 
14.3572 14.3622 2.85575 3 
18.6652 12.9289 1.42302 3 
18.6673 15.7978 1.41972 3 
17.2301 14.3633 2.85719 3 
20.1008 14.3648 2.8589 3 
21.5359 12.9298 1.42408 3 
21.5363 15.8005 1.42282 3 
22.9708 14.366 2.86013 3 
24.4063 12.9304 1.42483 3 
24.4069 15.8007 1.42396 3 
28.7117 14.3655 2.86044 3 
27.2768 12.9301 1.42505 3 
27.2769 15.801 1.42449 3 
25.8415 14.3659 2.86052 3 
1.43475 18.672 1.42344 3 
2.86921 17.2354 2.85859 3 
2.86994 20.1078 2.85841 3 
0.000275039 20.1084 2.85962 3 
4.30297 18.6706 1.42068 3 
7.16846 18.6672 1.41407 3 
5.73564 17.231 2.85417 3 
5.73711 20.1059 2.85421 3 
10.0399 18.6633 1.41139 3 
8.59495 17.2185 2.84027 3 
11.4786 17.2213 2.84214 3 
8.59777 20.102 2.84208 3 
11.4718 20.0952 2.84281 3 
12.9192 18.6658 1.41476 3 
15.7954 18.668 1.41618 3 
14.3605 17.2253 2.84633 3 
14.3591 20.0999 2.84826 3 
18.6657 18.6712 1.41904 3 
17.2351 17.2295 2.8504 3 
20.1007 17.2361 2.85725 3 
17.2287 20.1082 2.85225 3 
20.1074 20.1018 2.85023 3 
21.539 18.6695 1.41953 3 
24.4079 18.6715 1.42273 3 
22.972 17.236 2.85875 3 
22.9736 20.1067 2.85687 3 
28.7119 17.2368 2.85997 3 
27.2773 18.6723 1.42398 3 
25.8419 17.2369 2.85993 3 
25.8423 20.1083 2.85925 3 
1.43526 21.5441 1.42342 3 
2.87062 22.9801 2.85876 3 
1.43574 24.4161 1.42362 3 
0.000661974 22.9801 2.85949 3 
4.30476 24.4168 1.4219 3 
4.30394 21.544 1.42115 3 
7.17044 21.544 1.41566 3 
5.73865 22.9806 2.85553 3 
7.17226 24.4187 1.41743 3 
10.0424 21.5424 1.41474 3 
8.60191 22.9837 2.84629 3 
11.4766 22.9823 2.84827 3 
10.0447 24.4186 1.41623 3 
12.9179 21.5412 1.41799 3 
15.7927 21.5441 1.41864 3 
14.3568 22.98 2.85491 3 
15.7955 24.4188 1.41791 3 
12.9208 24.4159 1.4187 3 
18.6688 21.5414 1.41604 3 
17.2369 22.9777 2.84812 3 
20.1116 22.9764 2.84602 3 
18.671 24.4176 1.41454 3 
21.5412 21.5414 1.41716 3 
24.4087 21.5434 1.42171 3 
22.9747 22.9796 2.85529 3 
24.4095 24.4162 1.42095 3 
21.543 24.4162 1.41539 3 
27.2777 21.544 1.42357 3 
25.8427 22.9801 2.85861 3 
27.2781 24.4161 1.42334 3 
1.43621 27.2879 1.42399 3 
2.8711 25.8519 2.85935 3 
0.0010895 25.8518 2.85956 3 
4.30563 27.2886 1.42292 3 
7.1745 27.2906 1.4198 3 
5.73982 25.8534 2.85708 3 
10.0479 27.2889 1.4192 3 
8.60618 25.8583 2.85046 3 
11.4849 25.8518 2.85235 3 
12.9181 27.2921 1.41622 3 
15.7943 27.2943 1.41466 3 
14.3544 25.8601 2.84822 3 
18.6735 27.2969 1.41116 3 
17.2416 25.8649 2.84262 3 
20.1156 25.8582 2.84177 3 
21.5449 27.2931 1.41377 3 
22.9762 25.8544 2.85392 3 
24.4104 27.2897 1.42042 3 
27.2787 27.2882 1.42331 3 
25.8434 25.8525 2.85821 3 
1.43674 1.44643 4.29603 3 
1.43677 1.44593 7.16709 3 
2.87226 2.88158 5.73177 3 
2.87204 0.01036 5.73158 3 
0.00132679 0.010653 5.73135 3 
0.00160707 2.88211 5.73158 3 
4.30736 1.44638 4.29601 3 
7.17863 1.44611 4.29556 3 
4.30777 1.44573 7.16717 3 
7.17972 1.44494 7.16718 3 
5.74352 2.8812 5.7318 3 
5.74282 0.0106442 5.7314 3 
10.0474 1.44875 4.29341 3 
10.0497 1.44625 7.16698 3 
8.61409 2.88182 5.73154 3 
11.4855 2.8823 5.73091 3 
11.481 0.0154223 5.72684 3 
8.61544 0.00923979 5.73105 3 
12.9188 1.45118 4.29049 3 
15.7949 1.45313 4.28735 3 
12.923 1.44611 7.16624 3 
15.7977 1.44664 7.16223 3 
14.3581 2.88256 5.72914 3 
14.3572 0.0187554 5.72171 3 
18.674 1.45674 4.28567 3 
18.6671 1.44935 7.16685 3 
17.2318 2.88433 5.72764 3 
20.1029 2.8857 5.73029 3 
17.2439 0.0242071 5.71468 3 
20.108 0.0192567 5.73063 3 
21.5417 1.45313 4.29276 3 
24.4094 1.44931 4.29451 3 
21.5402 1.4515 7.16651 3 
24.4087 1.44843 7.16669 3 
22.9742 2.88558 5.73068 3 
22.9744 0.0143072 5.73018 3 
27.2786 1.44725 4.29553 3 
27.2783 1.44668 7.16692 3 
25.8436 2.88345 5.73122 3 
25.8432 0.0118224 5.7308 3 
1.43688 4.31755 4.29632 3 
1.43648 7.18836 4.29645 3 
1.43689 4.31722 7.16717 3 
1.43648 7.18822 7.16722 3 
2.8722 5.75256 5.73189 3 
0.00142627 5.75325 5.73175 3 
4.30731 7.18796 4.29646 3 
7.17843 4.31741 4.29617 3 
4.30772 4.3171 4.2964 3 
7.17846 7.18808 4.29635 3 
7.17898 4.31688 7.16727 3 
4.30746 7.18784 7.16728 3 
4.30796 4.31674 7.16727 3 
5.74319 5.75249 5.73189 3 
7.17883 7.18791 7.16729 3 
10.0494 4.31794 4.29562 3 
10.0498 7.1883 4.29609 3 
10.0505 4.31692 7.16723 3 
8.61444 5.75264 5.73184 3 
10.0504 7.18801 7.16726 3 
11.486 5.75259 5.73159 3 
12.921 4.31829 4.29468 3 
15.7934 4.31898 4.29358 3 
12.9212 7.18857 4.29572 3 
15.7926 7.18896 4.29536 3 
12.9226 4.31633 7.167 3 
15.794 4.3169 7.166 3 
12.9217 7.18805 7.16709 3 
14.3574 5.75278 5.73095 3 
15.7926 7.18843 7.16687 3 
18.6664 4.32037 4.29317 3 
18.6642 7.18954 4.29532 3 
18.6649 4.31862 7.16652 3 
17.2289 5.75355 5.73051 3 
18.6637 7.18909 7.1669 3 
20.1004 5.75455 5.73098 3 
21.5378 4.32079 4.29464 3 
21.5358 7.18997 4.29569 3 
24.4071 7.18992 4.29601 3 
24.4086 4.32003 4.29535 3 
21.537 4.32004 7.16677 3 
24.4083 4.31963 7.16686 3 
21.5353 7.18968 7.16701 3 
22.972 5.755 5.73128 3 
24.4068 7.18973 7.16708 3 
27.2785 4.3185 4.29596 3 
27.2779 7.18921 4.29628 3 
27.2784 4.31819 7.16703 3 
25.843 5.75435 5.73152 3 
27.2777 7.1891 7.16714 3 
1.4356 10.0589 4.29636 3 
1.43559 10.059 7.16722 3 
2.87149 8.62334 5.73188 3 
2.87037 11.4938 5.73172 3 
0.000712172 8.62406 5.73184 3 
4.30633 10.0583 4.29624 3 
7.17763 10.0583 4.29599 3 
4.3065 10.0584 7.16725 3 
5.74266 8.62319 5.73187 3 
7.17811 10.0585 7.1672 3 
5.74131 11.4932 5.73158 3 
10.0492 10.0588 4.29557 3 
8.61421 8.62345 5.73173 3 
10.0498 10.0592 7.16708 3 
11.4856 8.6238 5.73151 3 
8.61304 11.4938 5.73128 3 
11.4846 11.4948 5.73075 3 
15.7922 10.0598 4.29571 3 
12.9208 10.0594 4.29551 3 
12.9209 10.0599 7.16696 3 
14.3567 8.62415 5.7314 3 
15.7918 10.0602 7.1671 3 
14.3561 11.4955 5.73105 3 
18.6637 10.06 4.29595 3 
17.2279 8.62449 5.73139 3 
18.6631 10.0602 7.1672 3 
20.0993 8.6248 5.73154 3 
17.2275 11.4956 5.73158 3 
20.0991 11.4955 5.73172 3 
21.535 10.0601 4.29615 3 
24.4062 10.0602 4.29631 3 
21.5346 10.0602 7.16717 3 
22.9708 8.62498 5.73165 3 
22.9703 11.4956 5.73179 3 
24.4059 10.0602 7.16718 3 
27.277 10.0598 4.29641 3 
28.712 11.4949 5.73181 3 
25.8419 8.62474 5.73175 3 
27.2769 10.0598 7.1672 3 
25.8412 11.4955 5.73183 3 
1.43486 12.9297 4.29612 3 
1.43478 15.801 4.29572 3 
1.43488 12.93 7.16717 3 
1.43493 15.8016 7.16705 3 
2.86968 14.3648 5.73146 3 
4.30477 12.9282 4.29566 3 
4.30394 15.799 4.29483 3 
7.17551 12.9275 4.29499 3 
7.17161 15.7952 4.29313 3 
4.30502 12.9286 7.16708 3 
4.30454 15.7999 7.16694 3 
7.1763 12.9283 7.16702 3 
5.7391 14.3627 5.73101 3 
7.17312 15.7968 7.16679 3 
10.0469 12.928 4.29347 3 
10.0394 15.7916 4.28596 3 
10.0485 12.9297 7.16675 3 
8.61045 14.3626 5.7306 3 
10.0464 15.799 7.16709 3 
11.4817 14.3639 5.72787 3 
12.92 12.9293 4.29374 3 
15.7925 12.9299 4.2947 3 
12.9186 15.7951 4.28754 3 
15.7948 15.797 4.29052 3 
12.9196 12.9314 7.16614 3 
15.791 12.9319 7.16704 3 
12.9159 15.8016 7.16237 3 
14.3555 14.3657 5.72922 3 
15.7907 15.8021 7.16627 3 
18.6641 12.9302 4.29553 3 
18.6662 15.7994 4.29329 3 
18.6631 12.9312 7.16721 3 
17.2281 14.3659 5.73089 3 
18.664 15.8019 7.16693 3 
20.0995 14.3663 5.73142 3 
21.5351 12.9307 4.29603 3 
21.5349 15.802 4.29541 3 
24.4058 12.931 4.29627 3 
24.4061 15.8017 4.2959 3 
21.5345 12.9312 7.1672 3 
21.5339 15.8032 7.16713 3 
22.97 14.3669 5.73169 3 
24.4056 15.8024 7.16714 3 
24.4055 12.9313 7.16722 3 
27.2766 12.9306 4.2963 3 
27.2767 15.8017 4.29606 3 
28.7117 14.366 5.73168 3 
27.2765 12.9308 7.16719 3 
25.8411 14.3665 5.73173 3 
27.2765 15.8022 7.16711 3 
1.43522 18.6726 4.2952 3 
1.43551 18.6733 7.16688 3 
2.87009 17.2365 5.73105 3 
2.87105 20.108 5.73044 3 
0.000225801 20.109 5.73118 3 
4.30428 18.6704 4.29321 3 
7.16793 18.6629 4.28587 3 
4.3059 18.672 7.16659 3 
5.73891 17.234 5.73052 3 
7.17521 18.6699 7.167 3 
5.74019 20.1052 5.72768 3 
10.0088 18.6323 4.2521 3 
8.60544 17.229 5.73097 3 
10.044 18.6676 7.17736 3 
11.4697 17.224 5.71493 3 
8.6004 20.0931 5.71483 3 
11.3873 20.0107 5.6276 3 
12.9195 18.6463 4.26379 3 
15.8073 18.6554 4.27493 3 
12.8985 18.6628 7.13603 3 
14.3565 17.2294 5.7218 3 
15.8022 18.6617 7.15746 3 
14.389 20.0584 5.68589 3 
18.6636 18.6734 4.29212 3 
17.2327 17.2327 5.72681 3 
18.6589 18.6782 7.1673 3 
20.0982 17.2388 5.73096 3 
17.2207 20.1164 5.72929 3 
20.1044 20.1044 5.72665 3 
21.5376 18.6707 4.29315 3 
24.4067 18.6727 4.29527 3 
21.5352 18.6731 7.16684 3 
22.9707 17.2375 5.73131 3 
22.9711 20.1089 5.73064 3 
24.4057 18.6739 7.16703 3 
28.7119 17.2376 5.73145 3 
27.2768 18.6732 4.29569 3 
25.8413 17.2378 5.73154 3 
27.2765 18.6738 7.16703 3 
25.8412 20.1094 5.73125 3 
1.43578 21.5442 4.29509 3 
1.43619 24.4157 4.2953 3 
1.43615 21.5443 7.1667 3 
2.8718 22.9795 5.73072 3 
1.43655 24.4152 7.16686 3 
0.000567517 22.9802 5.73102 3 
4.30564 21.5434 4.29344 3 
4.30635 24.4158 4.29445 3 
7.1715 21.5419 4.28739 3 
7.17347 24.418 4.29044 3 
4.30759 21.543 7.16594 3 
7.17786 21.5393 7.16228 3 
5.74196 22.9788 5.72904 3 
7.17842 24.4139 7.16617 3 
4.30814 24.4143 7.16687 3 
10.0228 21.5428 4.26375 3 
10.0393 21.5218 7.13603 3 
8.60584 22.9797 5.72173 3 
11.435 23.0122 5.68597 3 
10.0382 24.4253 7.15744 3 
10.032 24.4304 4.27499 3 
12.9108 21.5341 4.26005 3 
15.7872 21.5498 4.28646 3 
12.9265 24.4103 4.28652 3 
15.8028 24.426 4.25995 3 
12.7708 21.3939 6.7649 5 
15.7557 21.5813 7.18024 5 
14.3569 22.98 5.76845 5 
12.9581 24.3788 7.18027 5 
15.9429 24.5661 6.76506 5 
18.6816 21.5297 4.27478 3 
18.6754 21.5349 7.15733 3 
17.2786 22.9478 5.68583 3 
20.1077 22.9805 5.72154 3 
18.6744 24.4385 7.13585 3 
18.6907 24.4174 4.2635 3 
21.54 21.5421 4.29022 3 
24.407 21.5444 4.29428 3 
21.5419 24.4183 4.28711 3 
24.4076 24.4169 4.2932 3 
21.535 21.5464 7.16607 3 
22.9714 22.9815 5.72886 3 
24.4056 24.4174 7.16577 3 
24.4051 21.5461 7.16678 3 
21.5355 24.421 7.16209 3 
27.2771 21.5446 4.29527 3 
27.2775 24.4161 4.29495 3 
27.2766 21.5452 7.16682 3 
25.8414 22.9808 5.73058 3 
27.2769 24.4161 7.16661 3 
1.43648 27.2871 4.29568 3 
1.43664 27.2865 7.167 3 
2.87202 25.8509 5.73133 3 
0.000958979 25.8513 5.7311 3 
4.30676 27.2874 4.2954 3 
7.17594 27.2894 4.29333 3 
4.30766 27.2863 7.16709 3 
5.74227 25.8513 5.73077 3 
7.17835 27.287 7.16689 3 
10.05 27.2867 4.29226 3 
8.60921 25.8557 5.72679 3 
10.0548 27.2819 7.16736 3 
11.493 25.8437 5.7294 3 
12.9064 27.3046 4.27496 3 
15.7941 27.3139 4.26364 3 
12.9116 27.2984 7.15746 3 
14.3246 25.9017 5.68591 3 
15.8152 27.2974 7.13593 3 
18.7046 27.3279 4.25181 3 
17.3263 25.9495 5.62738 3 
18.6695 27.2927 7.17713 3 
20.113 25.8672 5.71456 3 
21.5454 27.2974 4.28554 3 
24.409 27.2899 4.29291 3 
21.5381 27.2904 7.16676 3 
22.9731 25.8552 5.72742 3 
24.4073 27.2883 7.16635 3 
27.2781 27.2877 4.29503 3 
25.8422 25.8523 5.7302 3 
27.2776 27.2871 7.16672 3 
2.87231 2.88134 8.60254 3 
2.87218 0.0100246 8.60254 3 
1.43674 1.44593 10.038 3 
2.87219 2.88156 11.4733 3 
2.87198 0.0103824 11.4735 3 
0.00156433 2.88214 11.4735 3 
0.00128376 0.0107081 11.4737 3 
0.0015452 2.88191 8.6025 3 
0.0012494 0.0103668 8.6025 3 
5.74378 2.88086 8.60259 3 
5.74332 0.0100755 8.60256 3 
4.30775 1.44573 10.038 3 
7.17968 1.44494 10.038 3 
5.74347 2.88119 11.4734 3 
5.74277 0.0106837 11.4738 3 
8.61464 2.88127 8.60261 3 
11.4868 2.88106 8.60265 3 
11.485 0.0116928 8.60264 3 
8.61663 0.0079994 8.60262 3 
8.61538 0.0092651 11.4742 3 
10.0497 1.44626 10.0383 3 
8.61403 2.88183 11.4737 3 
11.4855 2.88233 11.4743 3 
11.481 0.015453 11.4784 3 
14.3602 2.87993 8.60263 3 
14.3663 0.0118667 8.60265 3 
14.3572 0.0187918 11.4835 3 
12.923 1.44613 10.0391 3 
15.7977 1.44666 10.043 3 
14.3581 2.88258 11.4761 3 
17.2296 2.88196 8.60258 3 
20.1021 2.88495 8.60254 3 
20.1068 0.0180393 8.60254 3 
17.244 0.0242651 11.4905 3 
18.6671 1.44937 10.0383 3 
17.2318 2.88435 11.4775 3 
20.103 2.8857 11.4748 3 
17.2287 0.00858303 8.60259 3 
20.1081 0.0192878 11.4744 3 
22.9739 2.88523 8.60249 3 
22.9737 0.0133891 8.60247 3 
22.9744 0.0143646 11.4748 3 
21.5402 1.45151 10.0385 3 
22.9742 2.8856 11.4744 3 
24.4087 1.44844 10.0383 3 
25.8435 2.88319 8.6025 3 
27.2783 1.44669 10.0381 3 
25.8436 2.88343 11.4738 3 
25.8429 0.0113297 8.60248 3 
25.8431 0.0118363 11.4742 3 
2.87222 5.75243 8.60256 3 
0.00138907 5.75314 8.60251 3 
1.43684 4.31723 10.0379 3 
1.43644 7.18821 10.0379 3 
2.8721 5.75253 11.4733 3 
0.00138193 5.75323 11.4733 3 
5.74331 5.75234 8.60261 3 
4.30791 4.31674 10.0379 3 
4.30742 7.18783 10.0379 3 
7.17895 4.31687 10.038 3 
7.17881 7.1879 10.038 3 
5.7431 5.75246 11.4733 3 
8.61474 5.75243 8.60263 3 
11.4865 5.75214 8.60266 3 
10.0504 4.31693 10.038 3 
10.0504 7.18799 10.0381 3 
8.61438 5.75262 11.4734 3 
11.486 5.75256 11.4737 3 
14.3579 5.75204 8.60264 3 
12.9226 4.31635 10.0383 3 
15.794 4.31689 10.0392 3 
12.9217 7.18804 10.0382 3 
15.7927 7.18841 10.0384 3 
14.3574 5.75274 11.4743 3 
17.2285 5.753 8.6026 3 
20.0999 5.75422 8.60254 3 
18.665 4.31861 10.0386 3 
18.6638 7.18907 10.0383 3 
17.229 5.75352 11.4747 3 
20.1004 5.75453 11.4742 3 
22.9718 5.75482 8.60253 3 
21.5371 4.32004 10.0383 3 
21.5353 7.18968 10.0381 3 
22.9721 5.75499 11.4738 3 
24.4083 4.31962 10.0381 3 
24.4068 7.18973 10.038 3 
25.8429 5.75423 8.60252 3 
27.2784 4.31818 10.038 3 
27.2777 7.18908 10.0379 3 
25.843 5.75435 11.4735 3 
2.87148 8.62331 8.6026 3 
2.87039 11.4939 8.60261 3 
1.43553 10.059 10.0379 3 
2.87142 8.62331 11.4733 3 
2.87027 11.4938 11.4735 3 
0.00064596 8.62402 8.60255 3 
0.000654433 8.62401 11.4733 3 
5.74282 8.62317 8.60262 3 
5.74149 11.4934 8.60265 3 
4.30646 10.0584 10.038 3 
7.17806 10.0585 10.0381 3 
5.74259 8.62316 11.4734 3 
5.74123 11.4932 11.4737 3 
8.61448 8.62344 8.60266 3 
11.4859 8.62379 8.6027 3 
8.61344 11.494 8.60269 3 
11.485 11.4953 8.60271 3 
11.4856 8.62379 11.4738 3 
10.0497 10.0592 10.0383 3 
8.61414 8.62343 11.4736 3 
8.61296 11.4937 11.4741 3 
11.4846 11.4948 11.4746 3 
14.3568 8.62411 8.60267 3 
14.3557 11.4962 8.60269 3 
12.9209 10.0599 10.0384 3 
15.7918 10.0602 10.0382 3 
14.3568 8.62413 11.4739 3 
14.3562 11.4955 11.4743 3 
17.2277 8.62444 8.60266 3 
20.099 8.62472 8.60258 3 
17.227 11.4961 8.60268 3 
20.0988 11.4957 8.60262 3 
18.6632 10.0602 10.0381 3 
17.228 8.62446 11.4738 3 
20.0994 8.62476 11.4736 3 
17.2276 11.4956 11.4737 3 
20.0991 11.4955 11.4735 3 
22.9706 8.62493 8.60254 3 
22.9701 11.4957 8.60257 3 
21.5347 10.0602 10.038 3 
22.9708 8.62495 11.4735 3 
22.9703 11.4956 11.4734 3 
24.4059 10.0602 10.0379 3 
28.7119 11.4949 8.60258 3 
25.8418 8.62472 8.60253 3 
25.8411 11.4956 8.60255 3 
28.7119 11.4948 11.4733 3 
27.2769 10.0598 10.0379 3 
25.8419 8.62473 11.4733 3 
25.8412 11.4955 11.4733 3 
2.86974 14.3651 8.60261 3 
1.43484 12.93 10.038 3 
1.43487 15.8016 10.0381 3 
2.86958 14.3648 11.4738 3 
5.73939 14.3631 8.60267 3 
4.30499 12.9286 10.0382 3 
4.30451 15.7999 10.0384 3 
7.17625 12.9283 10.0383 3 
7.17308 15.7969 10.0386 3 
5.73903 14.3627 11.4743 3 
8.61133 14.3634 8.60273 3 
11.4839 14.3663 8.60272 3 
10.0485 12.9297 10.0387 3 
10.0464 15.799 10.0383 3 
8.61041 14.3627 11.4748 3 
11.4817 14.364 11.4775 3 
14.3535 14.3683 8.6027 3 
12.9196 12.9314 10.0393 3 
15.791 12.9319 10.0383 3 
12.916 15.8016 10.043 3 
15.7907 15.8021 10.0391 3 
14.3555 14.3657 11.4761 3 
17.2269 14.3671 8.60267 3 
20.099 14.3669 8.60263 3 
18.6632 12.9313 10.0381 3 
18.664 15.8019 10.0383 3 
17.2282 14.3659 11.4744 3 
20.0996 14.3663 11.4738 3 
22.9697 14.3672 8.60259 3 
21.5346 12.9312 10.038 3 
21.5339 15.8032 10.0381 3 
22.97 14.3669 11.4735 3 
24.4057 15.8024 10.038 3 
24.4055 12.9313 10.0379 3 
28.7117 14.3661 11.4735 3 
28.7117 14.3663 8.60256 3 
25.841 14.3667 8.60255 3 
27.2765 12.9309 10.0379 3 
27.2765 15.8023 10.038 3 
25.8412 14.3665 11.4734 3 
2.87032 17.237 8.60262 3 
2.8715 20.1085 8.6026 3 
0.00018851 20.1094 8.60256 3 
1.43548 18.6733 10.0383 3 
2.86999 17.2365 11.4742 3 
2.87098 20.1081 11.4747 3 
0.000181587 20.1091 11.474 3 
5.73957 17.235 8.60266 3 
5.74246 20.1074 8.60264 3 
4.30587 18.6721 10.0387 3 
7.17515 18.67 10.0383 3 
5.73883 17.2341 11.4748 3 
5.74011 20.1052 11.4776 3 
8.6066 17.2303 8.60271 3 
11.4849 17.2397 8.60267 3 
8.616 20.1084 8.60269 3 
11.5364 20.1599 8.60267 5 
10.044 18.6676 10.028 3 
8.60539 17.2291 11.4744 3 
11.4696 17.2241 11.4905 3 
8.60035 20.0932 11.4905 3 
11.3873 20.0108 11.5778 3 
14.3474 17.2364 8.6027 3 
14.3523 20.0058 8.60278 5 
12.8985 18.6628 10.0694 3 
15.8023 18.6617 10.0479 3 
14.3565 17.2295 11.4835 3 
14.3891 20.0585 11.5193 3 
17.2288 17.2365 8.60263 3 
20.097 17.2401 8.60263 3 
17.2111 20.1261 8.60263 3 
20.1007 20.1084 8.60261 3 
18.6589 18.6783 10.0379 3 
17.2327 17.2328 11.4785 3 
20.0983 17.2389 11.4742 3 
17.2207 20.1164 11.476 3 
20.1044 20.1044 11.4785 3 
22.9702 17.2381 8.60257 3 
22.97 20.1102 8.60255 3 
21.5353 18.6732 10.0383 3 
22.9707 17.2375 11.4738 3 
22.9712 20.109 11.4745 3 
24.4057 18.6739 10.0381 3 
28.7119 17.2379 8.60257 3 
28.7119 17.2377 11.4737 3 
25.8411 17.2382 8.60257 3 
25.8408 20.11 8.60254 3 
27.2765 18.6739 10.0381 3 
25.8413 17.2379 11.4736 3 
25.8412 20.1095 11.4738 3 
2.87243 22.9791 8.60258 3 
0.000517315 22.9802 8.60254 3 
1.4365 24.4152 10.0382 3 
1.43611 21.5444 10.0384 3 
2.87174 22.9796 11.4744 3 
0.000520268 22.9803 11.4741 3 
5.7445 22.9768 8.60259 3 
4.30811 24.4143 10.0383 3 
4.30755 21.5431 10.0393 3 
7.17781 21.5394 10.043 3 
5.74187 22.9789 11.4762 3 
7.17837 24.4139 10.0391 3 
8.61268 22.9707 8.60266 3 
11.3824 22.9755 8.60267 5 
10.0382 24.4253 10.0479 3 
10.0393 21.5219 10.0693 3 
8.60578 22.9798 11.4836 3 
11.4351 23.0123 11.5194 3 
15.1061 23.729 8.60263 5 
13.6078 22.2312 8.60263 5 
15.7558 21.5814 10.025 5 
12.7707 21.3941 10.4404 5 
15.943 24.5662 10.4403 5 
12.9581 24.3788 10.0251 5 
14.3569 22.9801 11.4368 5 
17.3314 22.9847 8.60258 5 
20.1008 22.9896 8.6026 3 
18.6744 24.4385 10.0693 3 
18.6755 21.5349 10.0479 3 
20.1077 22.9806 11.4836 3 
17.2787 22.948 11.5194 3 
22.9688 22.9836 8.60253 3 
24.4051 21.5461 10.0383 3 
22.9714 22.9815 11.4762 3 
24.4056 24.4174 10.0392 3 
21.5356 24.421 10.043 3 
21.5351 21.5464 10.0391 3 
25.8407 22.9814 8.60251 3 
27.2766 21.5452 10.0382 3 
25.8414 22.9809 11.4744 3 
27.2769 24.4161 10.0384 3 
2.87237 25.8504 8.60255 3 
0.00088471 25.8511 8.60251 3 
0.00091007 25.8514 11.474 3 
1.43661 27.2865 10.0381 3 
2.87197 25.8509 11.4738 3 
5.74346 25.8501 8.60257 3 
7.1783 27.287 10.0383 3 
4.30764 27.2864 10.038 3 
5.7422 25.8514 11.4744 3 
8.61291 25.8518 8.60264 3 
11.5027 25.8341 8.60266 3 
11.493 25.8438 11.4759 3 
8.60915 25.8558 11.4784 3 
10.0548 27.2819 10.0379 3 
14.3615 25.9543 8.60266 5 
14.3247 25.9018 11.5194 3 
15.8152 27.2975 10.0693 3 
12.9116 27.2985 10.0478 3 
17.1772 25.8004 8.6026 5 
20.0975 25.8519 8.60257 3 
17.3264 25.9496 11.5778 3 
18.6696 27.2928 10.028 3 
20.1131 25.8673 11.4906 3 
22.9708 25.853 8.60249 3 
21.5382 27.2904 10.0383 3 
22.9731 25.8552 11.4776 3 
24.4073 27.2884 10.0386 3 
25.8416 25.8519 8.60249 3 
27.2776 27.2871 10.0383 3 
25.8422 25.8524 11.4748 3 
1.43665 1.44644 12.9091 3 
1.43655 1.44721 15.7807 3 
0.00168238 2.88268 14.3448 3 
2.87192 2.88217 14.3446 3 
0.00144446 0.0114244 14.3453 3 
2.87147 0.0113197 14.3452 3 
4.30726 1.4464 12.9091 3 
7.17854 1.44614 12.9097 3 
5.74265 2.88207 14.3449 3 
5.74137 0.0121644 14.3463 3 
4.30653 1.44737 15.7811 3 
7.17718 1.44761 15.7822 3 
10.0473 1.44877 12.9118 3 
11.4784 0.0185837 14.3547 3 
10.0461 1.45033 15.7854 3 
8.61278 0.0119515 14.3478 3 
8.61262 2.88331 14.3462 3 
11.4833 2.88491 14.348 3 
14.3562 2.88605 14.3496 3 
12.9188 1.4512 12.9147 3 
15.795 1.45316 12.9179 3 
12.9181 1.45256 15.7877 3 
15.7928 1.45437 15.7896 3 
14.3531 0.0228487 14.359 3 
18.6741 1.45678 12.9195 3 
18.6696 1.45638 15.7913 3 
17.231 2.88759 14.351 3 
20.1059 2.88914 14.3512 3 
20.1185 0.0298875 14.3652 3 
17.2349 0.027008 14.3633 3 
21.5418 1.45314 12.9123 3 
24.4094 1.44933 12.9105 3 
22.9778 0.017398 14.3513 3 
21.5449 1.45634 15.7906 3 
24.4109 1.45071 15.7843 3 
22.9753 2.88674 14.3475 3 
27.2785 1.44727 12.9096 3 
25.8442 0.0129394 14.3468 3 
25.8441 2.88415 14.3457 3 
27.279 1.44806 15.7815 3 
1.43679 4.31752 12.9088 3 
1.43638 7.18832 12.9087 3 
1.43673 4.31803 15.7801 3 
1.43632 7.18848 15.7799 3 
0.00143535 5.75353 14.3444 3 
2.87193 5.75282 14.3443 3 
7.17831 4.31739 12.9091 3 
4.3076 4.31708 12.9088 3 
4.30719 7.18793 12.9087 3 
7.17834 7.18803 12.9089 3 
4.30681 7.18809 15.78 3 
4.30713 4.31769 15.7802 3 
7.17748 4.31826 15.781 3 
7.17768 7.18824 15.7804 3 
5.74261 5.75283 14.3445 3 
10.0494 4.31794 12.9096 3 
10.0497 7.18826 12.9092 3 
10.0482 4.31924 15.7821 3 
10.049 7.18867 15.7808 3 
11.4849 5.75366 14.3455 3 
8.61354 5.75324 14.3449 3 
12.921 4.31828 12.9106 3 
15.7935 4.31896 12.9117 3 
12.9212 7.18851 12.9095 3 
15.7927 7.1889 12.9099 3 
14.3567 5.75409 14.3461 3 
12.92 4.32005 15.7831 3 
15.7928 4.32087 15.7839 3 
12.9207 7.1891 15.7812 3 
15.7926 7.18955 15.7815 3 
18.6666 4.32037 12.912 3 
18.6643 7.18949 12.9099 3 
18.6662 4.32184 15.7845 3 
18.6647 7.19007 15.7816 3 
17.2291 5.75478 14.3467 3 
20.1014 5.75558 14.3466 3 
22.9727 5.7555 14.3456 3 
24.4086 4.32003 12.9097 3 
21.5379 4.32077 12.9105 3 
21.5359 7.18992 12.9095 3 
24.4071 7.18988 12.9091 3 
21.5392 4.32231 15.7842 3 
24.4093 4.32073 15.782 3 
21.5366 7.19042 15.7814 3 
24.4076 7.19015 15.7807 3 
27.2785 4.31848 12.9091 3 
27.2778 7.18917 12.9088 3 
25.8433 5.75465 14.3449 3 
27.2788 4.31901 15.7807 3 
27.278 7.18938 15.7801 3 
1.43548 10.0589 12.9088 3 
1.43541 10.0587 15.78 3 
2.87007 11.4935 14.3447 3 
2.87122 8.6233 14.3443 3 
0.000702196 8.62404 14.3443 3 
4.30619 10.0582 12.909 3 
7.1775 10.0583 12.9093 3 
5.74211 8.62311 14.3445 3 
4.30581 10.058 15.7805 3 
7.17681 10.0578 15.7811 3 
5.74061 11.4927 14.3454 3 
10.0491 10.0588 12.9097 3 
11.4843 11.4935 14.3465 3 
10.0487 10.0582 15.7814 3 
8.61191 11.4927 14.3464 3 
8.61342 8.62331 14.3449 3 
11.485 8.62375 14.3452 3 
12.9208 10.0594 12.9098 3 
15.7924 10.0597 12.9096 3 
14.3567 11.4941 14.3461 3 
12.9208 10.0587 15.7814 3 
15.7927 10.0592 15.7812 3 
14.3567 8.62413 14.3453 3 
18.6638 10.0599 12.9093 3 
17.2286 11.4945 14.3456 3 
18.6644 10.0596 15.781 3 
17.2284 8.62451 14.3453 3 
20.1 11.4949 14.3451 3 
20.1 8.62488 14.3451 3 
22.9713 8.62503 14.3447 3 
22.9709 11.4953 14.3446 3 
21.5351 10.0601 12.909 3 
24.4062 10.0601 12.9088 3 
21.5358 10.0599 15.7806 3 
24.4067 10.06 15.7802 3 
28.7119 11.4946 14.3444 3 
25.8415 11.4952 14.3443 3 
25.8422 8.62473 14.3444 3 
27.277 10.0597 12.9087 3 
27.2771 10.0596 15.7799 3 
1.43473 12.9297 12.9091 3 
1.43467 15.801 12.9094 3 
1.43458 12.9292 15.7806 3 
1.43428 15.8002 15.7814 3 
2.86915 14.3641 14.3455 3 
4.30463 12.9282 12.9096 3 
4.30381 15.7991 12.9104 3 
7.17543 12.9275 12.9103 3 
7.17152 15.7953 12.9122 3 
5.73795 14.3616 14.3472 3 
4.30241 15.7977 15.784 3 
4.30403 12.9275 15.7818 3 
7.17413 12.926 15.7838 3 
7.16844 15.792 15.7902 3 
10.0469 12.928 12.9119 3 
10.0394 15.7916 12.9193 3 
11.4825 14.3607 14.3508 3 
10.0471 12.9265 15.7842 3 
10.0438 15.792 15.791 3 
8.60744 14.3592 14.3509 3 
12.92 12.9293 12.9116 3 
15.7926 12.93 12.9106 3 
12.9186 15.7952 12.9178 3 
15.7949 15.7971 12.9148 3 
12.9206 12.9274 15.7837 3 
15.7935 12.9282 15.783 3 
12.9206 15.7939 15.7894 3 
15.7955 15.7957 15.7877 3 
14.3573 14.3622 14.3495 3 
20.1009 14.3648 14.3463 3 
18.6642 12.9302 12.9097 3 
18.6663 15.7994 12.9119 3 
17.2302 14.3633 14.348 3 
18.6653 12.9289 15.7822 3 
18.6674 15.7978 15.7855 3 
21.5352 12.9307 12.9092 3 
21.535 15.802 12.9098 3 
24.4058 12.931 12.9089 3 
24.4062 15.8018 12.9092 3 
22.9709 14.366 14.345 3 
21.5361 12.9299 15.7811 3 
21.5364 15.8006 15.7823 3 
24.407 15.8008 15.7812 3 
24.4064 12.9304 15.7803 3 
27.2766 12.9306 12.9088 3 
27.2766 15.8018 12.9091 3 
25.8415 14.366 14.3446 3 
28.7116 14.3655 14.3447 3 
27.2767 12.9301 15.7801 3 
27.2768 15.801 15.7807 3 
2.86903 17.2355 14.3466 3 
1.4351 18.6726 12.91 3 
0.000188002 20.1086 14.3455 3 
1.43463 18.6722 15.7817 3 
2.86977 20.1079 14.3467 3 
4.30414 18.6705 12.912 3 
7.16783 18.663 12.9194 3 
5.73549 17.231 14.351 3 
4.30278 18.6707 15.7845 3 
7.16832 18.6673 15.7911 3 
5.73696 20.106 14.351 3 
10.0088 18.6324 12.9532 3 
8.59489 17.2185 14.365 3 
11.4786 17.2214 14.3631 3 
10.0398 18.6634 15.7938 3 
8.59767 20.1021 14.3632 3 
11.4718 20.0953 14.3625 3 
12.9195 18.6464 12.9415 3 
15.8073 18.6556 12.9303 3 
14.3605 17.2254 14.3589 3 
12.9192 18.6659 15.7904 3 
15.7955 18.6681 15.789 3 
14.3592 20.1001 14.357 3 
17.2352 17.2296 14.3548 3 
18.6637 18.6735 12.9131 3 
20.1008 17.2362 14.3479 3 
17.2288 20.1083 14.353 3 
20.1075 20.1019 14.3549 3 
18.6658 18.6713 15.7861 3 
21.5377 18.6708 12.912 3 
24.4067 18.6728 12.9099 3 
22.9722 17.2361 14.3464 3 
22.9737 20.1068 14.3483 3 
21.5391 18.6696 15.7856 3 
24.408 18.6716 15.7824 3 
27.2768 18.6732 12.9094 3 
28.7118 17.2369 14.3452 3 
25.8419 17.237 14.3452 3 
25.8423 20.1084 14.3459 3 
27.2772 18.6725 15.7812 3 
1.43568 21.5443 12.91 3 
1.43611 24.4158 12.9098 3 
1.43513 21.5443 15.7818 3 
1.43564 24.4163 15.7816 3 
2.87047 22.9802 14.3464 3 
0.00058713 22.9802 14.3457 3 
4.30624 24.4159 12.9107 3 
7.17336 24.4181 12.9148 3 
4.30551 21.5435 12.9118 3 
7.17141 21.542 12.9179 3 
4.30374 21.5441 15.784 3 
7.17029 21.5441 15.7895 3 
4.30457 24.4169 15.7833 3 
7.1721 24.4188 15.7878 3 
5.73849 22.9807 14.3497 3 
10.032 24.4305 12.9303 3 
10.0228 21.5429 12.9416 3 
11.4766 22.9825 14.357 3 
8.60182 22.9839 14.359 3 
10.0423 21.5426 15.7904 3 
10.0446 24.4187 15.789 3 
12.9109 21.5343 12.9453 3 
15.7873 21.5499 12.9188 3 
15.8029 24.4261 12.9453 3 
12.9265 24.4104 12.9188 3 
14.3569 22.9802 14.3504 3 
12.918 21.5414 15.7872 3 
15.7928 21.5442 15.7866 3 
12.9208 24.4161 15.7866 3 
15.7957 24.419 15.7873 3 
18.6908 24.4175 12.9417 3 
18.6816 21.5298 12.9304 3 
17.237 22.9778 14.3571 3 
18.669 21.5415 15.7892 3 
18.6711 24.4177 15.7907 3 
20.1117 22.9765 14.3592 3 
21.5401 21.5422 12.9149 3 
24.407 21.5445 12.9108 3 
21.542 24.4184 12.918 3 
24.4077 24.417 12.9119 3 
22.9748 22.9797 14.3498 3 
21.5414 21.5415 15.788 3 
24.4087 21.5435 15.7835 3 
24.4095 24.4164 15.7843 3 
21.5431 24.4163 15.7898 3 
27.2774 24.4162 12.9101 3 
27.277 21.5447 12.9098 3 
25.8427 22.9803 14.3465 3 
27.2776 21.5442 15.7816 3 
27.2781 24.4162 15.7819 3 
1.43642 27.2871 12.9094 3 
0.00101538 25.8519 14.3456 3 
1.43611 27.2879 15.7812 3 
2.87099 25.852 14.3458 3 
4.30666 27.2875 12.9098 3 
7.17586 27.2894 12.9119 3 
5.73969 25.8535 14.3482 3 
4.30549 27.2887 15.7823 3 
7.17438 27.2907 15.7855 3 
11.4849 25.8519 14.3529 3 
10.05 27.2868 12.913 3 
8.60609 25.8584 14.3548 3 
10.0478 27.289 15.786 3 
15.7942 27.314 12.9416 3 
12.9064 27.3047 12.9303 3 
14.3545 25.8602 14.3571 3 
12.9181 27.2922 15.789 3 
15.7944 27.2944 15.7905 3 
18.7048 27.328 12.9533 3 
17.2418 25.865 14.3626 3 
18.6736 27.297 15.7941 3 
20.1157 25.8583 14.3634 3 
24.409 27.29 12.9122 3 
21.5455 27.2975 12.9196 3 
21.545 27.2931 15.7914 3 
24.4105 27.2898 15.7848 3 
22.9763 25.8545 14.3512 3 
27.278 27.2878 12.9101 3 
27.2786 27.2882 15.7819 3 
25.8434 25.8526 14.3469 3 
1.43651 1.44774 18.6523 3 
2.87162 2.88286 17.2163 3 
0.00184526 2.88332 17.2165 3 
2.87103 0.0120624 17.2171 3 
2.87159 2.88319 20.0877 3 
0.00191669 2.8836 20.0879 3 
0.00160154 0.0119995 17.217 3 