ITEM: TIMESTEP
63000
ITEM: NUMBER OF ATOMS
2001
ITEM: BOX BOUNDS pp pp pp
0.0000000000000000e+00 2.8712000000000000e+01
0.0000000000000000e+00 2.8712000000000000e+01
0.0000000000000000e+00 2.8712000000000000e+01
ITEM: ATOMS x y z 
1.55536 1.50112 1.54347 
2.99039 2.91519 3.08352 
2.97725 0.0268902 2.91818 
0.0695151 2.95744 2.93187 
0.0787126 0.0626739 0.00028864 
1.48454 4.0269 1.46118 
4.26878 1.31477 1.46681 
7.15189 1.59471 1.40102 
5.77558 2.95465 2.84191 
10.1561 1.52908 1.40796 
8.56768 2.93836 2.70506 
11.4571 2.93176 2.86709 
11.5032 0.103282 2.78941 
8.735 0.111853 2.69122 
13.0237 1.56641 1.28057 
15.8073 1.48664 1.38257 
14.2418 3.09041 2.88858 
14.4134 0.158777 2.9095 
18.6655 1.47871 1.63992 
17.0386 3.00618 2.67847 
20.1206 2.83338 2.78425 
20.1766 0.0711483 2.99603 
20.0311 2.7876 0.00588366 
17.1958 2.99035 0.0529285 
17.1136 0.0208545 3.14944 
23.0179 2.86981 3.01868 
24.4387 1.34506 1.56196 
22.9246 0.104641 2.8934 
21.6095 1.4128 1.55684 
23.1041 2.98263 0.0883506 
27.2439 1.53208 1.49789 
25.9273 2.82751 3.07938 
25.849 2.8471 0.0124764 
1.33018 7.04568 1.07208 
2.6861 5.86043 2.81837 
4.13774 4.28269 1.527 
7.21769 4.34995 1.27448 
4.12871 7.06003 1.50315 
7.10057 7.2139 1.376 
5.74792 5.7631 2.91276 
5.64565 5.65635 0.0277564 
9.95006 4.32162 1.33994 
10.0052 7.2462 1.25791 
8.55543 5.72396 2.66805 
11.3312 5.62021 2.78331 
12.838 4.32654 1.33828 
15.8035 4.47419 1.36497 
12.898 6.98905 1.32471 
15.6513 7.24294 1.44394 
14.3899 5.74484 2.918 
18.7082 4.52066 1.34804 
18.9374 7.07698 0.978141 
17.2661 5.88079 2.68896 
20.1603 5.73441 2.883 
24.48 4.38393 1.57802 
21.6874 4.30535 1.56554 
21.4985 7.1542 1.37314 
22.952 5.90521 3.12832 
24.2627 7.08004 1.35392 
28.4477 5.98779 2.80734 
27.2402 4.14218 1.44089 
27.1344 7.18306 1.10919 
25.838 5.78152 2.78099 
28.6171 5.53435 0.0463593 
1.43743 10.1699 1.37539 
2.77656 8.65732 2.87411 
2.78745 11.5981 2.90202 
2.9292 8.87953 0.0126295 
4.32093 10.3478 1.47941 
7.01973 10.0105 1.45468 
5.60085 8.5876 2.70329 
5.61538 11.4206 2.93863 
10.0757 10.1521 1.40612 
8.439 8.50636 2.84825 
11.3628 8.40242 2.83895 
8.53546 11.3896 2.83785 
11.4145 11.7603 2.70447 
12.9045 9.92178 1.37605 
15.5996 9.94964 1.32816 
14.281 8.5883 2.88107 
15.726 10.0917 3.99867 
14.2372 11.4762 2.71022 
18.6265 10.0125 1.21897 
17.3941 8.57095 2.76964 
20.1687 8.8582 2.75351 
17.2709 11.4833 2.62347 
20.1073 11.532 2.91063 
21.416 10.1143 1.33742 
22.9229 8.6357 2.8464 
22.9439 11.5451 2.8716 
24.4773 9.88014 1.41411 
22.9314 11.6261 0.117211 
28.5375 11.5608 2.72011 
28.7021 8.65329 2.66534 
27.356 9.95437 1.21988 
25.9062 8.58706 2.65743 
25.8385 11.6645 2.90772 
1.52646 13.0838 1.37205 
1.75439 15.8852 1.42726 
2.94012 14.4203 2.74697 
0.00662479 14.5129 0.0733797 
3.0087 14.4813 0.0391633 
4.37569 16.0209 1.70474 
4.26297 12.8137 1.58297 
7.1214 12.8474 1.5237 
7.15805 15.9194 1.08044 
5.69614 14.5235 2.79698 
9.96422 12.9346 1.30441 
10.1089 15.8427 1.32007 
8.57876 14.376 2.70657 
11.6168 14.4512 2.80713 
12.9666 12.9775 1.3336 
15.7713 12.8158 1.3213 
13.0798 15.899 1.53897 
15.7817 16.0187 1.46436 
12.937 12.7827 4.0381 
14.4151 14.2119 2.68634 
14.6642 14.3195 0.00414464 
18.5995 13.0199 1.35438 
18.5159 15.9546 1.51427 
17.2505 14.2684 2.84446 
20.0078 14.4003 3.12409 
20.0274 14.3373 0.0368648 
21.526 13.0467 1.40899 
21.2361 15.714 1.50983 
22.7944 14.5055 2.87468 
24.5975 13.0591 1.35776 
24.1905 16.0806 1.32152 
28.5576 14.631 2.63705 
27.3895 13.0332 1.52224 
26.9483 15.9288 1.38473 
25.7447 14.612 3.08101 
1.64158 18.7349 1.4189 
2.86068 17.0807 3.01447 
2.8577 20.1615 3.02517 
0.0306705 17.4322 2.82119 
0.0822978 20.2198 2.83667 
2.97593 20.0824 0.00372511 
4.25764 18.7566 1.50059 
7.158 18.9153 1.43905 
5.92694 17.1041 2.79865 
5.81449 20.0861 2.93859 
5.6626 19.9316 0.121094 
8.51832 17.3275 0.0528719 
10.111 18.6189 1.33638 
8.52245 17.1611 2.86882 
11.5514 17.3315 2.99429 
8.62308 20.1831 2.81876 
11.2345 20.0759 2.95075 
11.5972 17.2098 0.0620634 
14.276 17.3063 0.132673 
12.8316 18.7582 1.51394 
15.7638 18.7486 1.41547 
14.3142 17.3425 2.94769 
14.42 20.0673 3.01068 
19.9983 17.2872 0.00624322 
17.2638 20.141 0.164753 
18.5457 18.7661 1.28904 
17.0423 17.2358 2.80844 
19.9312 17.2306 3.06716 
17.3355 20.3356 2.84492 
19.9742 20.1131 2.99664 
20.2042 20.2148 0.0270253 
17.2193 17.2999 0.00503653 
23.0066 19.985 0.0940375 
21.4285 18.5671 1.62974 
24.3562 18.7293 1.46081 
22.8745 17.2561 2.92876 
22.9454 20.0706 2.8175 
27.2215 18.6221 1.41219 
25.7195 17.3856 2.85817 
25.9048 20.1268 2.71229 
28.6388 17.213 0.0863958 
1.52051 21.5606 1.43895 
2.94586 22.9346 3.23343 
1.39941 24.4015 1.59482 
2.72894 23.0489 0.0793764 
4.30576 24.2697 1.53916 
4.2162 21.7104 1.52592 
7.02954 21.6363 1.54317 
5.60602 22.8514 3.01614 
7.20146 24.3396 1.33359 
5.70983 22.8619 0.0131126 
11.5935 22.95 0.0536674 
10.0361 21.4393 1.46273 
8.47944 23.0824 2.93583 
11.3996 23.0324 2.92363 
10.048 24.4442 1.42402 
12.847 21.489 1.34273 
15.8376 21.6849 1.57852 
12.7329 21.5221 3.98048 
14.2521 23.0286 2.89378 
15.7707 24.2776 1.48398 
12.78 24.3571 1.35911 
18.7718 21.489 1.32313 
17.2704 23.0728 2.89248 
20.0564 23.1495 2.83719 
18.5844 24.4301 1.43122 
17.2987 22.9734 0.0223027 
21.3584 21.4189 1.52584 
24.4812 21.5573 1.46435 
22.935 23.0228 2.81633 
24.4799 24.3739 1.51947 
21.6221 24.4002 1.43419 
28.7047 22.9248 2.82289 
27.3585 21.6287 1.38669 
25.9415 23.0779 2.912 
27.2828 24.4533 1.36855 
1.59733 27.6215 1.39511 
2.98035 25.7084 2.90132 
2.84139 25.7745 0.205815 
5.78842 28.69 2.86368 
4.46708 27.2922 1.46498 
7.27162 27.2829 1.2615 
5.82206 25.8573 2.88856 
5.68771 25.8146 0.0295902 
10.0648 27.2943 1.33249 
8.53358 25.9502 2.80292 
10.0544 27.4374 4.066 
11.3953 25.8371 2.75249 
12.9939 27.3676 1.50296 
15.723 27.267 1.49773 
14.2983 25.979 2.7951 
14.3691 25.7886 0.0939203 
17.1433 28.6245 0.0753242 
17.2059 25.7076 0.0362121 
18.7288 27.4969 1.62793 
17.2596 26.0321 2.74647 
19.9966 25.7651 2.81729 
20.041 28.6148 0.157522 
21.6046 27.2885 1.48671 
22.9392 25.9369 2.95026 
24.4626 27.0202 1.5593 
23.0109 28.5582 0.246895 
25.7694 28.5509 2.78477 
28.5795 25.905 2.79313 
28.6568 28.6507 2.92281 
27.3494 27.4325 1.20288 
25.8994 25.8027 2.9231 
25.8237 28.6558 0.0398074 
1.3419 1.45281 4.20417 
1.41682 1.47574 7.19599 
2.7356 2.77154 5.88216 
2.81833 0.114664 5.70327 
0.0752192 0.102961 5.81284 
4.32302 1.49048 4.32163 
7.31544 1.61071 4.18903 
4.28273 1.41547 7.08551 
7.32277 1.49815 7.44895 
5.7723 2.89096 5.86554 
5.8579 0.205325 5.70365 
10.0566 1.52968 4.17515 
10.0249 1.53927 7.13385 
8.43476 3.01514 5.68875 
11.4756 2.79327 5.68431 
11.5498 0.106985 5.84183 
8.63777 0.0893475 5.62974 
12.9892 1.52021 4.37719 
15.7294 1.7268 4.24571 
13.1208 1.45886 7.12574 
15.7911 1.42783 7.12824 
14.3759 2.98391 5.70284 
18.742 1.47696 4.2711 
18.5721 1.42537 7.14502 
17.2284 2.92116 5.70388 
20.1698 2.94494 5.81988 
17.3985 0.0818844 5.57092 
20.0475 0.23078 5.7021 
21.5603 1.58114 4.49493 
24.4724 1.3126 4.24904 
21.5797 1.71329 7.34239 
24.408 1.54496 7.21586 
23.1566 2.9471 5.61041 
22.8303 0.064573 5.87316 
27.3675 1.56038 4.31842 
28.5897 2.86113 5.95928 
27.3745 1.38173 7.19712 
25.9391 3.02131 5.86694 
25.8053 0.063418 5.70891 
1.37869 4.25724 4.44387 
1.45584 7.2629 4.48172 
1.33065 4.39647 7.16435 
1.4742 7.3009 7.21998 
2.83907 5.7565 5.82936 
0.0355267 5.71522 5.72347 
4.41288 7.25899 4.3415 
6.98884 4.41512 4.23014 
4.24147 4.35023 4.51402 
7.27612 7.18727 4.26384 
7.22053 4.61733 7.16644 
4.49016 7.1434 7.24321 
4.47247 4.2003 7.39713 
5.71546 5.82205 5.7443 
7.17177 7.17307 7.22712 
9.76105 4.45884 4.19306 
9.98417 7.12759 4.21846 
10.0847 4.49406 6.83743 
8.56569 6.20569 5.79916 
10.3016 7.25015 7.18988 
11.4994 6.01396 5.57279 
12.7188 4.43584 4.21019 
15.8344 4.40322 4.28452 
12.795 7.11483 4.20813 
15.7731 7.12834 4.35491 
12.8588 4.32404 7.12144 
15.8615 4.48374 7.15157 
12.9238 7.17198 7.07262 
14.3567 5.87616 5.58932 
15.8599 7.25856 7.00918 
18.949 4.31272 4.15547 
18.6677 7.26298 4.18394 
18.6087 4.29098 6.9911 
17.2411 5.82877 5.71824 
18.3925 7.33316 7.27939 
20.2368 5.92211 5.88244 
21.4608 4.24042 4.43624 
21.5287 7.40466 4.44044 
24.4964 7.28786 4.26233 
24.5029 4.5147 4.39171 
21.6862 4.31149 7.26732 
24.3338 4.21953 7.26646 
21.5778 7.50566 7.25618 
23.0639 5.83483 5.86697 
24.3553 7.21974 7.29838 
27.2542 4.42491 4.26465 
27.3511 7.2976 4.2872 
27.2969 4.27983 7.37869 
25.8011 5.99239 5.56112 
27.0754 7.03605 7.15728 
1.12422 10.1651 4.27916 
4.07062 9.95608 4.25367 
1.63558 10.2685 7.10194 
3.00416 8.60568 5.93047 
2.85312 11.6667 5.61068 
0.0853292 8.87338 5.95829 
7.04806 10.044 4.331 
4.48033 10.1395 6.96778 
5.76257 8.70254 5.7802 
7.05433 9.98163 7.13979 
5.65443 11.6357 5.72206 
10.0503 9.78158 4.27192 
8.50227 8.6365 5.77541 
10.0342 10.1612 7.13632 
11.5976 8.6663 5.71097 
8.604 11.405 5.68056 
11.4764 11.4016 5.57247 
12.8767 10.0337 4.23322 
12.851 10.1273 7.12605 
14.3944 8.73013 5.61122 
15.7802 10.0757 7.01669 
14.3478 11.3562 5.45958 
18.6459 10.2248 4.1058 
17.2024 8.79381 5.52378 
18.6686 9.92807 6.99767 
20.0384 8.52316 5.65619 
17.1287 11.4442 5.50277 
20.2879 11.5213 5.58808 
21.6672 10.1406 4.38704 
24.434 9.95618 4.30393 
21.4171 10.1806 7.16733 
23.0041 8.64799 5.60729 
22.9519 11.5227 5.86603 
24.2528 10.132 7.17406 
27.2245 10.0994 4.29559 
28.501 11.5815 5.76069 
25.87 8.70347 5.75782 
27.1463 10.2159 7.09154 
25.751 11.5241 5.37373 
1.13689 13.0098 4.16252 
1.16342 15.7172 4.19094 
1.42476 12.8852 7.1963 
1.38021 15.678 7.0785 
2.94235 14.3044 5.67941 
4.21394 13.0147 4.28079 
4.28469 15.5827 4.34714 
7.04977 12.8806 4.11418 
7.31517 15.8563 4.39967 
4.28148 13.0513 7.17244 
4.27336 15.709 7.12162 
7.16174 12.9306 7.26714 
5.71015 14.2516 5.70012 
6.99799 15.7417 7.20043 
9.89872 12.8998 4.13844 
10.0847 15.7924 4.25756 
9.88271 12.9411 7.13698 
8.47155 14.2252 5.6865 
9.97706 15.6757 7.12343 
11.4667 14.3358 5.70837 
15.7677 12.9051 4.16329 
13.0045 15.5174 4.40223 
15.5295 15.8232 4.35122 
12.91 12.8152 6.99431 
15.7351 12.7034 7.2274 
12.8931 15.7562 7.11186 
14.3048 14.0964 5.61172 
15.7898 15.775 7.04671 
18.6317 12.8969 4.32565 
18.5301 15.7051 4.48295 
18.8054 12.9111 7.34061 
16.9984 14.3364 5.80907 
18.4691 15.845 7.00354 
20.2605 14.4018 5.7569 
21.599 12.9888 4.20682 
21.7047 15.8813 4.3458 
24.3287 13.1612 4.22543 
24.4795 15.9341 4.39336 
21.5329 12.9524 7.16287 
21.4859 16.1142 7.08758 
22.9249 14.369 5.77494 
24.4755 15.8305 7.09171 
27.1559 13.0597 4.22918 
27.3077 15.8812 4.19181 
24.6231 12.8938 7.16762 
28.6454 14.2709 5.62413 
27.2827 12.9047 7.26599 
26.0685 14.5499 5.83869 
27.3915 15.9055 7.12049 
1.4862 18.5923 4.22538 
1.42977 18.645 7.22344 
3.01899 17.3404 5.77659 
3.02259 19.9861 5.74771 
0.144038 17.2609 5.76305 
0.167105 20.1017 5.74456 
4.55063 18.4509 4.29307 
7.09393 18.653 4.30245 
4.36484 18.7317 7.17815 
5.85948 17.0629 5.70374 
7.1295 18.5655 7.0749 
5.8483 20.0822 5.87816 
9.9719 18.5984 4.23204 
8.69837 17.378 5.75156 
10.1137 18.6726 7.3366 
11.5365 17.2295 5.86073 
8.47455 19.9952 5.67219 
11.4262 19.9729 5.68182 
12.9647 18.5919 4.29938 
15.7407 18.7207 4.45802 
12.863 18.6775 7.14926 
14.1585 17.217 5.66436 
15.6464 18.5993 7.30785 
14.3045 20.1057 5.8578 
18.4486 18.5388 4.41327 
17.0255 17.2189 5.73856 
18.8072 18.738 7.25019 
20.1296 17.2016 5.7459 
17.1337 20.1915 5.74809 
20.0623 19.9874 5.66142 
21.572 18.771 4.30662 
24.3051 18.5868 4.1764 
21.5683 18.9088 7.2193 
23.0838 17.5808 5.74017 
23.1106 20.0167 5.7391 
27.1554 18.6454 4.18129 
24.6317 18.6178 7.14237 
25.8807 17.3105 5.6981 
27.2494 18.6939 7.22145 
25.8934 20.0863 5.57234 
1.37852 21.5513 4.35284 
1.41125 24.4071 4.41619 
1.6197 21.4016 6.94453 
3.04648 22.98 6.00944 
1.4421 24.3056 7.03173 
4.32738 21.612 4.57306 
4.47133 24.5144 4.55975 
7.04309 21.4753 4.39431 
7.11481 24.4915 4.13863 
4.48486 21.4316 7.28577 
7.08585 21.6645 7.05902 
6.02811 23.1116 5.73978 
7.28293 24.4553 7.40348 
4.6155 24.4563 7.10952 
9.99704 21.6503 4.39686 
10.05 21.6354 6.85025 
8.71434 23.3592 5.80336 
11.4229 23.1262 5.68008 
10.1721 24.5941 7.24087 
15.7338 21.5309 4.4448 
12.8679 24.4589 4.37498 
15.5845 24.5404 4.13722 
13.0138 21.6672 6.79704 
15.8234 21.8984 7.1555 
14.3828 23.1768 5.78803 
18.5866 21.6551 4.4232 
18.664 21.613 7.31536 
17.1964 23.3161 5.64293 
20.1176 23.0364 5.67554 
18.7332 24.3759 7.36551 
21.4451 21.5468 4.22358 
24.3614 21.4633 4.33094 
21.4536 24.5345 4.12618 
24.512 24.3696 4.36268 
21.536 21.5511 7.04441 
22.8526 22.9298 5.62269 
24.3315 24.4213 7.24137 
24.3904 21.5122 7.21218 
21.6376 24.4143 7.20119 
27.3304 21.5054 4.37635 
27.1655 24.3222 4.36132 
28.5985 22.8787 5.78039 
27.14 21.6374 7.26657 
25.7508 22.8288 5.63719 
27.3364 24.1614 7.14154 
1.52602 27.1994 4.36298 
1.45391 27.4315 7.0802 
2.7867 25.9442 5.82585 
4.48451 27.5633 4.451 
7.39118 27.3965 4.24377 
4.47564 27.3669 7.14904 
5.80348 25.9339 5.78689 
7.19266 27.6071 7.13473 
9.986 24.6389 4.19856 
8.37573 25.8697 5.81961 
10.0165 27.3377 7.18843 
11.3817 26.0886 5.58128 
12.8204 27.5491 4.26966 
15.906 27.3597 4.35186 
12.845 24.638 7.20388 
14.472 28.6887 5.60117 
12.9829 27.267 7.02975 
14.3385 26.1275 5.64098 
15.8872 27.5575 6.97886 
15.7224 24.8504 6.89443 
18.5361 24.6564 4.38891 
18.7284 27.303 4.39729 
17.2689 26.0275 5.75051 
18.737 27.3529 7.29401 
20.026 25.8291 5.7615 
21.5876 27.3341 4.40612 
24.4688 27.3329 4.44273 
21.4315 27.3944 7.26053 
22.9227 25.9108 5.87137 
24.2633 27.2198 7.48184 
27.2662 27.3908 4.33599 
28.5897 25.7973 5.81889 
25.8214 25.8458 5.68561 
27.2345 27.2312 7.24318 
3.03117 2.97324 8.61098 
2.87214 0.134558 8.56226 
1.36615 1.52265 9.94509 
3.08004 2.96274 11.482 
2.76889 0.0566311 11.3547 
0.144629 2.8269 11.4988 
0.133299 0.00248291 11.3446 
5.8901 3.00725 8.77127 
5.71287 0.193637 8.61232 
4.30603 1.53908 9.94747 
7.22797 1.6715 10.1429 
5.8045 3.13331 11.477 
5.59869 0.0602522 11.216 
8.51995 3.1653 8.5763 
11.3949 2.86435 8.56347 
11.6744 0.205735 8.58036 
8.75547 0.292642 8.84554 
8.61197 0.145484 11.4474 
10.1051 1.64943 10.1084 
8.65698 2.85031 11.5618 
11.4743 2.8544 11.6374 
11.5015 0.117937 11.2881 
14.3519 2.97184 8.4927 
14.3689 0.0765372 8.56908 
14.32 0.0952214 11.4766 
13.1637 1.40924 10.0812 
15.8078 1.49406 10.0088 
14.4514 2.89143 11.6347 
17.2393 2.90271 8.58043 
20.0336 2.96544 8.40251 
19.9879 0.00767264 8.63403 
17.1437 0.00885935 11.2575 
18.8523 1.37997 10.077 
17.1247 2.87652 11.479 
19.8719 2.73479 11.5116 
22.9747 2.85686 8.76298 
22.8986 0.0325491 8.7111 
22.9543 0.131106 11.5688 
21.4594 1.42459 10.1917 
22.9868 2.83742 11.4938 
24.3739 1.14055 10.051 
28.6848 2.94952 8.6277 
25.7975 2.83153 8.97464 
27.4779 1.45914 10.1211 
25.7804 2.99168 11.385 
2.95023 5.74726 8.64762 
0.262353 5.72121 8.61003 
1.43688 4.28025 10.0492 
1.26663 7.26049 9.91994 
2.78258 5.72431 11.3686 
0.0824724 5.74037 11.3381 
5.86284 5.86513 8.74987 
4.42721 4.56318 9.98008 
4.35115 7.25114 10.0429 
7.36532 4.42153 10.221 
7.31571 7.14336 10.0106 
5.80835 5.77478 11.5356 
8.82926 5.63751 8.42156 
11.522 5.74931 8.53348 
10.1658 4.31587 9.93433 
10.0462 7.08754 10.0366 
8.73828 5.90253 11.5981 
11.5734 5.76306 11.4884 
14.4574 5.65867 8.4762 
13.1326 4.31796 10.0453 
15.7935 4.43003 10.0834 
12.9556 7.15418 9.79263 
15.6951 7.10967 10.0559 
14.3432 5.89365 11.4623 
17.1404 5.74612 8.57282 
20.0879 5.84765 8.73837 
18.6652 4.23908 10.1828 
18.6674 7.26928 10.054 
17.2502 5.93036 11.5093 
19.9482 5.78778 11.6556 
22.8508 5.87424 8.69365 
21.4949 4.31613 10.1851 
21.4918 7.18783 10.1899 
22.891 5.81901 11.5707 
24.2189 4.34358 10.1599 
24.3129 7.28353 9.99443 
25.7346 5.60991 8.58266 
27.3192 4.28412 9.94331 
27.183 7.03394 9.83515 
25.8947 5.73762 11.3551 
2.91324 8.6319 8.50384 
2.95086 11.4129 8.67838 
0.11104 11.5005 8.62094 
1.45312 10.1067 9.98782 
3.00286 8.33393 11.548 
2.76456 11.4127 11.508 
5.889 8.7218 8.54575 
5.89386 11.5187 8.52484 
4.40923 9.90433 10.1355 
7.29399 9.96531 10.1603 
5.7696 8.50902 11.4472 
5.69355 11.3917 11.5224 
8.85345 8.64956 8.58743 
11.5369 8.67154 8.41312 
8.54273 11.3828 8.47853 
11.4005 11.6168 8.62726 
11.4272 8.47985 11.4368 
9.99482 10.0325 9.9879 
8.55851 8.6031 11.5498 
8.63958 11.2575 11.6118 
11.4894 11.4698 11.2286 
14.275 8.71826 8.39424 
14.2402 11.5195 8.64175 
12.7682 10.0217 10.027 
15.8293 9.95897 9.7972 
14.2263 8.73237 11.3197 
14.2112 11.4945 11.421 
17.2596 8.67436 8.64599 
19.997 8.63139 8.74444 
17.144 11.4865 8.4559 
20.0372 11.6555 8.57563 
18.5683 10.0689 10.0579 
17.109 8.60583 11.5581 
20.0442 8.73899 11.6315 
17.0416 11.4523 11.3443 
19.95 11.4753 11.4629 
22.8865 8.71243 8.64856 
22.9572 11.6225 8.56105 
21.6104 10.0489 9.9952 
22.9231 8.46122 11.4865 
22.9752 11.7291 11.3834 
24.4581 10.2687 10.004 
28.7104 8.72217 8.41501 
25.7087 8.69801 8.67195 
25.8865 11.59 8.6466 
28.6823 11.3141 11.5114 
28.7047 8.63871 11.4259 
27.1691 10.0025 9.89523 
25.8993 8.58906 11.4453 
25.9623 11.5229 11.3853 
2.78872 14.4467 8.73104 
1.55089 12.8804 10.0106 
1.56359 15.7617 10.1025 
2.99277 14.1397 11.471 
0.138256 14.307 11.4068 
5.75549 14.3924 8.70223 
4.34099 12.8944 10.0711 
4.30167 15.8903 10.0895 
7.10059 12.7845 10.1896 
7.06397 15.6528 10.0265 
5.75394 14.2609 11.5754 
8.5983 14.2493 8.65777 
11.4081 14.4416 8.62183 
9.7952 12.6607 10.0918 
9.97489 15.7461 9.97167 
8.66512 14.2252 11.4568 
11.4318 14.4681 11.407 
14.4322 14.4179 8.43252 
13.0191 12.9596 9.97019 
15.7708 13.004 10.0042 
13.0032 15.6452 10.0574 
15.8183 15.8346 10.0598 
14.4737 14.363 11.4104 
17.2587 14.3517 8.59533 
20.2212 14.3769 8.58519 
18.6911 13.0602 10.0709 
18.5648 15.7984 10.1697 
17.1698 14.2657 11.4293 
20.0154 14.6011 11.5521 
22.9778 14.3835 8.55136 
21.4474 12.9947 10.0804 
21.7472 15.81 9.89748 
23.0524 14.3672 11.4928 
24.3884 15.966 10.0568 
24.3689 13.0165 9.88748 
28.6634 14.3916 8.54604 
25.8735 14.3057 8.5992 
27.4142 12.9658 10.1155 
27.3613 15.7496 9.91448 
25.8752 14.2509 11.4729 
2.83724 17.2156 8.62068 
2.84479 20.1694 8.6217 
0.0330444 20.1812 8.55515 
0.112516 17.2577 8.58423 
1.63303 18.6624 10.1396 
3.10722 17.3341 11.6119 
2.93989 20.1744 11.4784 
0.173168 20.0957 11.2851 
0.159277 17.1785 11.509 
5.56176 17.177 8.58136 
5.89268 20.0209 8.69182 
4.37507 18.6514 9.91156 
7.24772 18.5838 10.0007 
5.79222 17.2173 11.376 
5.7892 20.0388 11.5891 
8.42608 17.1852 8.60047 
11.5356 17.1558 8.69144 
8.58064 20.323 8.5433 
11.4978 20.3586 8.4144 
10.0466 18.4865 9.87491 
8.85103 17.2223 11.5055 
11.6358 17.1513 11.5368 
8.81991 20.1262 11.3623 
11.2409 19.4289 11.5622 
14.2847 17.1834 8.52165 
14.2114 20.0713 8.62086 
12.9913 18.6119 9.96913 
15.854 18.8611 9.92936 
14.2524 17.1885 11.2094 
14.3599 20.0158 11.4563 
17.1389 17.183 8.60325 
20.0696 17.2756 8.66531 
17.085 20.1538 8.42306 
20.1246 20.1179 8.63108 
18.6287 18.7719 10.0562 
17.1512 17.2754 11.2913 
20.1727 17.3288 11.3213 
17.2207 20.1434 11.5096 
20.0947 20.0824 11.369 
23.0183 17.4268 8.37053 
23.1221 20.1349 8.5565 
21.5181 18.7018 9.88505 
22.984 17.1709 11.6014 
23.0332 20.1761 11.4796 
24.5424 18.4494 9.96011 
26.0272 17.1448 8.65135 
25.8666 20.114 8.76508 
27.4202 18.8004 9.95023 
26.0605 17.2348 11.2985 
25.9598 20.1413 11.423 
2.74167 22.8864 8.5134 
0.209254 22.9802 8.70057 
1.69366 24.4441 9.89636 
1.48804 21.5188 9.96083 
2.97721 22.9674 11.3884 
0.119122 22.7081 11.4665 
5.72233 23.0321 8.6184 
4.55777 24.3838 10.1106 
4.31673 21.5109 10.0986 
7.21455 21.6345 9.99127 
5.8678 22.9666 11.4336 
8.48839 22.9004 8.64191 
11.3949 22.8531 8.35324 
10.1235 24.3559 9.70111 
10.2156 21.5749 10.0543 
8.61477 22.944 11.2918 
11.4652 23.1704 11.568 
14.7994 23.7561 8.48969 
13.5398 22.2221 8.99692 
15.7525 21.6374 10.0079 
12.3109 21.0975 10.6133 
15.9536 24.4922 10.2262 
12.9 24.4294 9.7946 
14.2106 22.848 11.3471 
17.1387 22.955 8.60003 
20.2172 22.8877 8.80505 
18.6807 24.456 10.1296 
18.5896 21.438 9.97549 
20.003 22.9041 11.4249 
17.2066 23.0302 11.6567 
22.9476 22.8111 8.63653 
24.3324 21.5253 10.0631 
22.9254 22.9704 11.3918 
24.384 24.4661 10.1478 
21.3825 24.3168 10.0076 
21.5773 21.3986 10.006 
25.6172 23.0256 8.69393 
27.2221 21.7627 9.93409 
25.6817 22.9409 11.4974 
27.3571 24.275 10.1376 
0.071584 28.5595 8.6499 
3.21056 25.7051 8.48417 
0.0968193 25.6488 8.58599 
0.201059 25.6179 11.5134 
1.61413 27.1492 10.0209 
2.95493 25.5868 11.692 
5.90786 25.9095 8.64148 
7.21606 27.4416 10.1306 
7.2243 24.619 9.94454 
4.34212 27.3492 9.97539 
5.97437 25.7635 11.4552 
8.46129 26.0983 8.57569 
11.477 26.1983 8.70444 
11.622 25.7207 11.3406 
8.77665 25.8895 11.4577 
10.1319 27.3194 10.109 
14.4668 26.2121 8.50896 
14.4221 25.7269 11.3533 
15.7913 27.2231 10.0845 
12.9725 27.2899 10.0317 
17.2033 28.6504 8.65323 
17.2141 25.6913 8.50396 
20.0275 25.7323 8.65641 
17.2262 25.8147 11.5595 
18.6164 27.163 10.0372 
20.0674 25.9376 11.5655 
20.0544 28.6615 11.5577 
22.6926 25.8406 8.89094 
21.4899 27.3123 10.289 
22.8972 25.9826 11.5267 
24.3746 27.3235 10.1662 
25.7749 28.6127 8.72003 
25.9481 25.8855 8.82959 
25.8975 28.7093 11.5346 
27.462 27.2158 10.0971 
25.9962 25.8012 11.6394 
1.60059 1.56413 13.0148 
1.2527 1.3428 15.7796 
0.0271899 2.94712 14.4818 
2.80553 2.90484 14.4618 
4.46327 1.56913 12.85 
7.09132 1.44022 12.9535 
5.62409 2.88298 14.2905 
5.63463 0.0184084 14.2323 
4.10491 1.46826 15.6915 
6.95058 1.3723 15.5813 
10.0872 1.51874 13.0935 
11.4864 0.0175221 14.0771 
10.0304 1.39712 15.841 
8.60018 0.0163806 14.3808 
8.52901 2.90257 14.4103 
11.6234 3.07314 14.4043 
14.5351 2.79462 14.3336 
12.8981 1.5132 12.8582 
15.8518 1.24796 12.9889 
12.9247 1.25678 15.7778 
15.8148 1.28115 15.6949 
18.6073 1.39933 12.9136 
18.6383 1.43397 15.7384 
17.4056 2.92616 14.3907 
20.2366 3.0753 14.5431 
20.0832 0.207144 14.475 
17.2903 0.153853 14.4263 
21.4575 1.58585 12.8723 
24.5519 1.50335 12.9932 
23.0615 0.211961 14.3014 
21.4415 1.39787 15.9574 
24.4084 1.37154 15.6974 
23.0269 2.74316 14.4417 
27.2694 1.52249 12.7353 
25.914 0.200658 14.3076 
25.9715 3.02488 14.1634 
28.5687 0.0569733 14.3323 
27.2683 1.51786 15.7463 
1.42299 4.34482 12.9631 
1.4477 7.22781 12.9145 
1.40888 4.17995 15.9409 
1.40883 7.1962 15.91 
0.060371 5.901 14.3791 
2.7528 5.6888 14.453 
7.204 4.33574 12.945 
4.23221 4.61925 12.7497 
4.48046 7.0821 12.9271 
7.44708 7.18785 12.9689 
4.3182 7.05938 15.8651 
4.35346 4.33804 15.8066 
7.06713 4.17871 16.0293 
7.32538 7.09777 15.8496 
5.77328 5.95968 14.4663 
10.0105 4.24443 13.004 
10.1669 7.05654 13.0653 
10.052 4.26996 15.7901 
10.0669 7.26737 16.0651 
11.4124 5.74607 14.5374 
8.45046 5.63697 14.5066 
12.9873 4.44069 13.0155 
15.7747 4.47373 12.8883 
12.9567 7.16098 13.0027 
15.6563 7.52959 12.841 
14.4041 5.69134 14.3171 
13.0767 4.22593 15.9527 
15.7908 4.25043 15.7989 
12.8774 7.23824 15.7696 
15.7606 7.21582 15.7389 
18.5987 4.39291 12.9977 
18.7208 7.28416 13.0654 
18.6337 4.33125 15.8851 
18.6034 6.96203 15.686 
17.0585 5.96364 14.3925 
20.0019 5.80977 14.4212 
22.9423 5.71053 14.3016 
24.3541 4.40824 12.8778 
21.6174 4.34667 12.8561 
21.4756 7.19492 13.0037 
24.3506 7.22728 12.7872 
21.5688 4.26321 15.851 
24.5812 4.34842 15.9016 
21.6335 7.10131 15.8114 
24.3094 7.16116 15.6523 
27.4235 4.33321 12.7501 
27.4728 7.14696 12.6417 
25.9088 5.74244 14.2307 
27.4634 4.23816 15.9475 
27.2943 7.15992 15.7159 
1.49616 9.96069 12.9629 
0.0454316 11.4624 14.3089 
1.32263 10.0679 15.8751 
2.85845 11.3118 14.4164 
2.92113 8.49857 14.4122 
4.32431 9.84119 12.8729 
7.19607 9.98727 13.0685 
5.8422 8.51274 14.3326 
4.37788 9.87471 15.6921 
7.01226 10.0887 15.8094 
5.55281 11.3627 14.4898 
10.1716 10.0696 12.9842 
11.65 11.6924 14.3468 
10.0976 10.0382 15.8893 
8.6393 11.4371 14.484 
8.62404 8.71559 14.5005 
11.2697 8.63063 14.5294 
12.7024 9.90587 12.9231 
15.7569 10.2232 12.7348 
14.3047 11.4402 14.2874 
12.725 10.0475 15.9138 
15.7271 10.0562 15.8177 
14.2585 8.832 14.4144 
18.4875 10.1257 12.9271 
17.2649 11.5032 14.3335 
18.5692 10.0215 15.7201 
17.2195 8.70905 14.3571 
20.1938 11.5061 14.4963 
20.092 8.61816 14.5216 
22.9319 8.57585 14.3433 
22.9498 11.547 14.3082 
21.5455 10.0978 12.9845 
24.2513 10.0377 12.8595 
21.4912 10.1924 15.7485 
24.2361 10.1357 15.6791 
25.9371 11.6937 14.1779 
25.7432 8.76099 14.2853 
27.1632 9.94609 12.9065 
27.2447 10.0977 15.6355 
28.513 8.5948 14.3743 
1.43633 12.7923 13.0927 
1.57972 15.6854 12.7802 
1.56101 12.8946 15.7878 
1.43037 15.8398 15.8193 
2.85416 14.4646 14.3876 
4.26781 12.9356 13.0412 
4.35989 15.6568 12.8362 
6.95884 12.8496 13.054 
7.31689 15.7785 12.8417 
5.7832 14.4767 14.2021 
4.39189 15.8135 15.7903 
4.3373 12.9628 15.7552 
7.13677 12.802 15.9531 
7.17932 15.5713 15.9801 
9.89572 12.7369 12.9713 
10.1581 15.8952 12.862 
11.4769 14.4431 14.3005 
10.1178 12.8203 16.0189 
10.1572 15.6648 16.0013 
8.63079 14.3811 14.3939 
12.8704 12.9655 12.8281 
15.7193 12.9821 12.8534 
12.9543 15.8431 12.8139 
15.7429 15.6586 12.989 
12.9805 12.9656 15.7866 
15.7106 12.9915 15.6501 
13.0425 15.6936 15.7519 
15.9194 15.832 15.8538 
14.179 14.2966 14.3969 
20.1082 14.6099 14.2959 
18.7581 13.0111 12.8452 
18.5194 15.7787 12.8282 
17.1963 14.463 14.3251 
18.6384 12.9053 15.7783 
18.5932 15.7496 15.6597 
21.2766 12.8565 12.8551 
21.3862 15.9315 12.8119 
24.4942 12.9677 12.7415 
24.5609 15.8493 12.8476 
23.0202 14.412 14.2442 
21.5937 12.9909 15.9732 
21.52 15.8989 15.659 
24.4475 15.9426 15.6345 
24.4165 12.9843 15.804 
27.414 12.949 12.837 
27.3935 15.7415 12.7869 
25.9468 14.3987 14.2928 
28.5817 14.3785 14.232 
27.2701 12.8633 15.8143 
27.3165 15.7434 15.7706 
2.88954 17.1067 14.3182 
1.50094 18.6674 13.0059 
0.251877 19.9473 14.3692 
1.536 18.6022 15.7243 
3.15809 20.2443 14.5669 
4.4337 18.5982 13.2559 
7.38354 18.5245 12.753 
6.11684 17.0313 14.5661 
4.45501 18.6242 15.7735 
7.12349 18.6325 16.1435 
5.99551 20.0997 14.6278 
10.008 18.6205 13.29 
8.61417 17.1183 14.5727 
11.6272 17.2283 14.4117 
10.0719 18.5162 16.0685 
8.62342 19.9675 14.3963 
11.3787 20.0189 14.5211 
13.0776 18.5508 12.7942 
15.551 18.7182 12.7902 
14.3655 17.1731 14.3711 
12.7848 18.7221 15.9182 
15.7427 18.6152 15.8413 
14.2725 19.9754 14.5225 
17.0562 17.2623 14.1744 
18.6119 18.5554 12.7189 
20.0184 17.38 14.2834 
17.1044 19.9192 14.3187 
20.0564 20.0757 14.3375 
18.5279 18.5622 15.6711 
21.4701 18.7642 12.8828 
24.4249 18.6405 12.8606 
23.0006 17.2848 14.3357 
23.1012 20.2682 14.4246 
21.5426 18.7137 15.7487 
24.4408 18.6711 15.5579 
27.3146 18.6488 12.8643 
28.6733 17.2492 14.3296 
25.9109 17.2473 14.1856 
25.8162 20.1397 14.2809 
27.3799 18.6769 15.8187 
1.55545 21.4833 12.9638 
1.54056 24.1155 12.7791 
1.46334 21.544 15.8703 
1.34694 24.2902 15.7387 
2.90689 22.8833 14.5411 
4.33114 24.2856 12.9854 
7.24388 24.2475 12.8606 
4.37022 21.5417 12.888 
7.34258 21.4429 12.8163 
4.44249 21.6246 15.8479 
7.32713 21.4238 15.7297 
4.4334 24.4125 15.8228 
7.17664 24.3935 15.4258 
5.92032 22.7978 14.3733 
10.0709 24.4146 12.8809 
10.0083 21.3482 12.7445 
11.3778 23.0221 14.2144 
8.73902 22.906 14.3764 
10.1461 21.5196 15.8035 
10.0228 24.3984 15.7657 
12.9001 21.4218 12.9084 
15.7906 21.2756 12.889 
15.8096 24.2246 12.9568 
12.8829 24.2885 12.8846 
14.3545 22.8724 14.2507 
12.9516 21.6759 15.8839 
15.7017 21.5982 15.8068 
12.8464 24.4116 15.7139 
15.6917 24.4636 15.8735 
18.6293 24.3651 12.998 
18.6016 21.5331 12.8898 
17.1598 22.6617 14.3704 
18.6892 21.5061 16.0072 
18.7826 24.2908 15.8811 
20.0338 22.8968 14.441 
21.2878 21.629 12.8806 
24.4003 21.5868 12.9811 
21.5174 24.61 12.8877 
24.3172 24.5812 12.9265 
22.9512 23.0153 14.2506 
21.5027 21.6323 15.7267 
24.4145 21.5233 15.7291 
24.4369 24.2925 15.7876 
21.4351 24.5784 15.8776 
27.3953 24.1652 12.9718 
27.2154 21.3762 12.8519 
25.7964 22.965 14.2792 
27.2015 21.263 15.7123 
27.1988 24.2499 15.8018 
28.7005 22.7243 14.3747 
1.4237 27.2052 12.9616 
2.89809 28.6086 14.2679 
0.168203 25.7275 14.2856 
1.44009 27.3267 15.8503 
2.79729 25.8131 14.4646 
4.35889 27.2969 12.6387 
7.18265 27.4705 12.882 
5.70578 25.9374 14.1343 
4.29821 27.3028 15.6345 
7.03311 27.2128 15.7447 
11.5086 25.9324 14.1712 
10.1657 27.4794 12.5927 
8.84138 25.8209 14.2787 
10.0586 27.3323 15.9011 
15.6864 27.3675 12.9524 
12.8982 27.2392 12.6042 
14.3222 25.8625 14.3029 
14.27 28.4745 14.4215 
12.7584 27.1171 15.5589 
15.9547 27.157 15.7148 
18.6277 27.2394 12.8888 
17.2161 25.9125 14.2237 
18.6114 27.4633 15.8442 
19.9032 25.9372 14.5174 
24.5346 27.2909 13.0652 
21.5767 27.6468 13.129 
21.3614 27.3486 15.9098 
24.3341 27.2923 15.7388 
22.8793 25.989 14.5296 
27.4667 27.0938 13.0148 
27.2212 27.2672 15.9053 
25.8361 25.701 14.4988 
1.47997 1.25197 18.7247 
2.8216 2.6934 17.2901 
0.0213677 2.83183 17.3547 
2.83383 0.0343383 17.06 
2.77842 2.90598 20.0287 
0.00711308 2.77977 20.0322 
4.20631 1.26079 18.8186 
7.09809 1.33424 18.6508 
5.67254 2.64277 17.3846 
5.58392 0.0315862 17.155 
5.6686 2.88276 20.052 
10.2082 1.44772 18.6916 
8.7116 2.84616 17.1932 
11.5619 2.83453 17.2518 
8.43383 2.89669 20.1172 
11.5848 2.81164 20.1047 
12.947 1.42901 18.7557 
15.8092 1.40809 18.6204 
14.5027 2.7194 17.2423 
13.0051 4.05541 18.7008 
14.4517 2.82714 20.1993 
14.401 0.110778 20.0542 
18.6947 1.51897 18.6876 
17.2848 2.71227 17.2801 
20.2043 3.14534 17.2952 
19.9079 0.0346301 17.256 
17.3847 2.86994 20.0995 
20.1579 3.1174 20.0614 
17.0894 0.107746 20.1617 
21.4019 1.46372 18.5473 
23.0655 2.85698 17.1661 
24.4742 1.40619 18.6661 
23.0671 0.132124 17.0605 
22.8675 2.90043 19.9052 
22.877 0.0631147 20.1083 
27.0707 1.43545 18.6613 
25.8877 2.85318 17.2407 
28.6024 0.0882839 17.3588 
25.6815 2.84415 19.9717 
1.19659 4.33923 18.6225 
1.45233 7.17848 18.7624 
2.86465 5.53663 17.1566 
2.77663 5.79715 20.0911 
4.3162 4.2504 18.5776 
4.33996 7.18819 18.9403 
7.21555 4.43279 18.7126 
5.74834 5.93236 17.2612 
7.29937 7.18174 18.7921 
5.85704 5.7608 20.0611 
9.92793 4.28993 18.8203 
8.60134 5.91738 17.2676 
10.0913 7.17155 18.7136 
11.5814 5.61399 17.2365 
8.56655 5.78691 20.1972 
11.4764 5.75611 20.1229 
15.6687 4.22153 18.6614 
13.111 6.91398 18.7352 
14.5228 5.7115 17.2177 
15.9504 7.11421 18.7793 
14.2887 5.61266 20.1398 
18.668 4.4169 18.7993 
17.0681 5.57851 17.1535 