ITEM: TIMESTEP
64041
ITEM: NUMBER OF ATOMS
2001
ITEM: BOX BOUNDS pp pp pp
0.0000000000000000e+00 2.8712000000000000e+01
0.0000000000000000e+00 2.8712000000000000e+01
0.0000000000000000e+00 2.8712000000000000e+01
ITEM: ATOMS x y z c_cna 
1.43647 1.44706 1.42457 3 
2.87186 2.8822 2.86048 3 
2.87151 0.0112348 2.86004 3 
0.00147526 0.0112839 2.86009 3 
0.00163482 2.88264 2.86045 3 
4.30649 1.44735 1.424 3 
7.1772 1.44767 1.4228 3 
5.74263 2.8822 2.86003 3 
5.74144 0.0122278 2.85879 3 
10.0462 1.45047 1.41968 3 
8.6126 2.88348 2.85875 3 
11.4834 2.88509 2.85701 3 
11.4785 0.0187663 2.85037 3 
8.61285 0.0121165 2.85727 3 
12.9181 1.45266 1.41739 3 
15.7929 1.45443 1.41573 3 
14.3563 2.8862 2.85554 3 
14.3531 0.0230206 2.84632 3 
18.6697 1.45635 1.41414 3 
17.231 2.88769 2.85426 3 
20.106 2.88912 2.85418 3 
20.1185 0.0298279 2.84032 3 
17.2349 0.0270829 2.84217 3 
22.9754 2.88668 2.85796 3 
24.4109 1.4505 1.42124 3 
22.9778 0.017252 2.85426 3 
21.5449 1.45619 1.4149 3 
27.279 1.44787 1.42389 3 
25.8441 2.88402 2.85972 3 
25.8442 0.0127492 2.85877 3 
1.43653 4.31799 1.42498 3 
1.4361 7.18861 1.42513 3 
2.87178 5.75296 2.86067 3 
0.00134948 5.75362 2.86069 3 
4.30697 4.31773 1.42476 3 
7.17741 4.31831 1.42394 3 
4.30665 7.18818 1.42489 3 
7.1776 7.18828 1.42441 3 
5.74251 5.75294 2.8604 3 
10.0482 4.31931 1.42281 3 
10.049 7.18862 1.42397 3 
8.61352 5.75332 2.8599 3 
11.485 5.75373 2.85931 3 
12.9201 4.32009 1.42191 3 
15.793 4.32087 1.42122 3 
12.9209 7.18905 1.42363 3 
15.7928 7.18952 1.42346 3 
14.3569 5.75416 2.8588 3 
18.6664 4.32181 1.42074 3 
18.6649 7.19007 1.42346 3 
17.2292 5.75485 2.85846 3 
20.1016 5.7556 2.85863 3 
24.4093 4.32062 1.42334 3 
21.5393 4.3222 1.4212 3 
21.5366 7.19042 1.42381 3 
22.9728 5.75553 2.85967 3 
24.4076 7.19018 1.42455 3 
27.2787 4.31894 1.42457 3 
27.2779 7.18945 1.42502 3 
25.8433 5.75468 2.86034 3 
1.4352 10.0589 1.42491 3 
2.8711 8.62349 2.86057 3 
2.87003 11.4936 2.8601 3 
0.000559587 8.6242 2.86078 3 
4.30573 10.0581 1.42433 3 
7.17683 10.0578 1.42362 3 
5.74205 8.62317 2.86023 3 
5.74068 11.4927 2.85936 3 
10.0488 10.0581 1.42331 3 
8.61344 8.62328 2.85981 3 
11.4851 8.62365 2.85959 3 
8.61201 11.4926 2.85838 3 
11.4844 11.4933 2.85827 3 
12.9209 10.0586 1.42338 3 
15.7929 10.0591 1.42362 3 
14.3568 8.62407 2.85953 3 
14.3568 11.494 2.8587 3 
18.6645 10.0596 1.42402 3 
17.2285 8.62453 2.85966 3 
20.1 8.62494 2.85999 3 
17.2286 11.4945 2.85936 3 
20.0999 11.495 2.86004 3 
21.5358 10.06 1.42454 3 
22.9713 8.62514 2.86047 3 
22.9708 11.4954 2.86061 3 
24.4065 10.0601 1.42503 3 
28.7118 11.4948 2.86064 3 
27.2769 10.0598 1.42517 3 
25.8421 8.62489 2.86075 3 
25.8414 11.4954 2.86081 3 
1.43448 12.9293 1.42436 3 
1.43428 15.8004 1.42369 3 
2.86925 14.3642 2.85939 3 
4.30256 15.7977 1.42094 3 
4.30408 12.9276 1.42304 3 
7.17428 12.9259 1.42091 3 
7.16865 15.792 1.41458 3 
5.73813 14.3615 2.85759 3 
10.0473 12.9263 1.4205 3 
10.0439 15.7918 1.41385 3 
8.60758 14.359 2.85386 3 
11.4826 14.3605 2.85401 3 
12.9207 12.9272 1.42102 3 
15.7935 12.9281 1.42182 3 
12.9207 15.7938 1.41554 3 
15.7954 15.7956 1.41733 3 
14.3573 14.362 2.85542 3 
18.6652 12.929 1.42284 3 
18.6673 15.7978 1.41971 3 
17.2301 14.3632 2.85702 3 
20.1007 14.3648 2.85891 3 
21.5359 12.93 1.42406 3 
21.5362 15.8006 1.42292 3 
22.9707 14.3661 2.86022 3 
24.4068 15.8009 1.4241 3 
24.4062 12.9306 1.42488 3 
28.7116 14.3656 2.86033 3 
27.2766 12.9303 1.42496 3 
27.2767 15.8012 1.42453 3 
25.8414 14.3661 2.86061 3 
1.43469 18.6722 1.42348 3 
2.86924 17.2354 2.85846 3 
2.87002 20.1078 2.85846 3 
0.00025851 20.1085 2.85985 3 
4.30305 18.6706 1.42064 3 
7.16862 18.6672 1.41393 3 
5.7358 17.2309 2.85392 3 
5.73732 20.1059 2.85414 3 
10.04 18.6633 1.41128 3 
8.59515 17.2184 2.84002 3 
11.4787 17.2211 2.84191 3 
8.59797 20.102 2.84198 3 
11.4719 20.0952 2.84275 3 
12.9192 18.6658 1.41471 3 
15.7954 18.6681 1.41622 3 
14.3604 17.2253 2.84617 3 
14.3591 20.1 2.84828 3 
18.6656 18.6712 1.4192 3 
17.235 17.2295 2.85042 3 
20.1006 17.2362 2.85742 3 
17.2285 20.1083 2.85242 3 
20.1072 20.1018 2.85052 3 
21.5389 18.6695 1.4198 3 
24.4078 18.6717 1.42301 3 
22.9719 17.236 2.85898 3 
22.9735 20.1067 2.85724 3 
28.7118 17.2369 2.85998 3 
27.2771 18.6725 1.42416 3 
25.8418 17.237 2.86013 3 
25.8422 20.1083 2.85962 3 
1.43521 21.5442 1.42365 3 
2.87069 22.98 2.85895 3 
1.43569 24.4161 1.42392 3 
0.000671906 22.9801 2.85986 3 
4.30479 24.4167 1.42203 3 
4.304 21.544 1.42125 3 
7.17059 21.5441 1.41566 3 
5.73881 22.9806 2.85559 3 
7.17235 24.4188 1.41745 3 
10.0426 21.5426 1.41474 3 
8.60206 22.9838 2.84626 3 
11.4767 22.9825 2.84828 3 
10.0448 24.4188 1.41624 3 
12.918 21.5414 1.41804 3 
15.7927 21.5442 1.41881 3 
14.3568 22.9802 2.85504 3 
15.7956 24.419 1.41812 3 
12.9209 24.4162 1.41877 3 
18.6688 21.5415 1.4163 3 
17.2368 22.9778 2.84838 3 
20.1114 22.9764 2.84638 3 
18.671 24.4178 1.41484 3 
21.5411 21.5415 1.41754 3 
24.4086 21.5434 1.42214 3 
22.9746 22.9796 2.85575 3 
24.4094 24.4162 1.42143 3 
21.543 24.4162 1.41582 3 
27.2776 21.5441 1.42393 3 
25.8427 22.9801 2.8591 3 
27.2781 24.416 1.42375 3 
1.43612 27.2877 1.42419 3 
2.87113 25.8519 2.85951 3 
0.00106904 25.8517 2.85992 3 
4.30556 27.2886 1.42292 3 
7.17452 27.2907 1.41969 3 
5.7399 25.8535 2.85707 3 
10.0479 27.2891 1.41912 3 
8.60626 25.8585 2.8504 3 
11.485 25.8521 2.85236 3 
12.9182 27.2923 1.41624 3 
15.7944 27.2945 1.41482 3 
14.3544 25.8604 2.84834 3 
18.6736 27.297 1.41147 3 
17.2416 25.8651 2.84291 3 
20.1156 25.8582 2.84219 3 
21.545 27.293 1.41419 3 
22.9762 25.8543 2.8544 3 
24.4104 27.2895 1.42087 3 
27.2786 27.288 1.42367 3 
25.8434 25.8524 2.85873 3 
1.43674 1.44645 4.29607 3 
1.43694 1.44606 7.16715 3 
2.87228 2.88174 5.73166 3 
2.87214 0.0104391 5.73158 3 
0.00170278 2.8822 5.73169 3 
0.0014847 0.0106757 5.73158 3 
7.17858 1.44634 4.29532 3 
4.3073 1.4465 4.29587 3 
4.30785 1.44596 7.16705 3 
7.17974 1.44525 7.16695 3 
5.74347 2.88143 5.73155 3 
5.74288 0.0108574 5.73125 3 
10.0474 1.449 4.29318 3 
10.0496 1.44663 7.16676 3 
8.61403 2.88213 5.73121 3 
11.4855 2.8826 5.73068 3 
8.61544 0.0095392 5.73088 3 
11.481 0.0157542 5.72672 3 
12.9188 1.45143 4.29039 3 
15.7949 1.45335 4.28743 3 
12.9229 1.44649 7.16612 3 
15.7975 1.44698 7.16227 3 
14.358 2.88286 5.72902 3 
14.3571 0.0190819 5.72176 3 
18.6741 1.45688 4.2859 3 
18.667 1.44959 7.16701 3 
17.2318 2.88457 5.7277 3 
20.103 2.88584 5.73049 3 
17.2438 0.0244642 5.71488 3 
20.1079 0.0193535 5.73098 3 
21.5418 1.45314 4.29311 3 
24.4094 1.44923 4.29492 3 
21.5402 1.45164 7.16677 3 
24.4088 1.44848 7.16698 3 
22.9743 2.88564 5.73099 3 
22.9744 0.0143402 5.73059 3 
27.2786 1.4472 4.29583 3 
27.2785 1.44676 7.16714 3 
25.8437 2.88351 5.73149 3 
25.8433 0.0117728 5.7312 3 
1.43635 7.1885 4.29629 3 
1.43677 4.31764 4.29623 3 
1.437 4.31742 7.16718 3 
1.43653 7.18842 7.16718 3 
2.87213 5.75275 5.73172 3 
0.00148587 5.75341 5.73178 3 
4.30712 7.1881 4.29613 3 
7.17829 4.31761 4.29581 3 
4.30755 4.31726 4.29613 3 
7.17828 7.18813 4.29592 3 
7.17891 4.31715 7.16701 3 
4.30743 7.18801 7.16709 3 
4.30794 4.31699 7.16711 3 
5.74307 5.75264 5.73161 3 
7.17876 7.18804 7.16702 3 
10.0493 4.31813 4.29526 3 
10.0498 7.18828 4.29563 3 
10.0504 4.3172 7.16696 3 
8.61435 5.75283 5.73146 3 
10.0503 7.1881 7.16697 3 
11.486 5.75273 5.73126 3 
12.921 4.31847 4.29441 3 
15.7935 4.31913 4.29347 3 
12.9212 7.18855 4.29532 3 
15.7928 7.18898 4.29511 3 
12.9226 4.31665 7.16682 3 
15.7939 4.31717 7.16592 3 
12.9217 7.18815 7.16687 3 
14.3574 5.75296 5.73073 3 
15.7926 7.18854 7.16672 3 
18.6666 4.32048 4.29322 3 
18.6644 7.18958 4.29524 3 
18.665 4.31882 7.16658 3 
17.229 5.75368 5.73044 3 
18.6637 7.18921 7.1669 3 
20.1005 5.75466 5.73108 3 
21.538 4.32082 4.29486 3 
21.5359 7.19002 4.29576 3 
24.4072 7.19 4.29612 3 
24.4087 4.32005 4.2956 3 
21.5371 4.32019 7.16694 3 
24.4084 4.31972 7.16711 3 
21.5354 7.18984 7.16711 3 
22.9722 5.75509 5.73147 3 
24.4069 7.18991 7.1672 3 
27.2786 4.31855 4.29611 3 
27.2778 7.18933 4.2963 3 
27.2786 4.31834 7.1672 3 
25.8431 5.75446 5.73168 3 
27.2778 7.18927 7.16722 3 
1.43543 10.0591 4.29618 3 
1.43566 10.0591 7.16714 3 
2.87144 8.6235 5.73165 3 
2.87039 11.4939 5.73146 3 
0.000694931 8.62421 5.7318 3 
4.30621 10.0584 4.29584 3 
7.17753 10.0582 4.29548 3 
4.30655 10.0584 7.16699 3 
5.74259 8.62324 5.73151 3 
7.17805 10.0585 7.16689 3 
5.74132 11.4932 5.73117 3 
10.0491 10.0586 4.29505 3 
8.61411 8.62341 5.73131 3 
10.0497 10.059 7.16676 3 
11.4856 8.62371 5.73113 3 
8.61301 11.4935 5.73082 3 
11.4845 11.4945 5.7303 3 
12.9208 10.0592 4.29503 3 
15.7923 10.0596 4.29534 3 
12.9208 10.0597 7.16667 3 
14.3568 8.62412 5.73105 3 
15.7917 10.0601 7.16691 3 
14.3561 11.4953 5.7307 3 
18.6637 10.06 4.29578 3 
17.228 8.6245 5.73123 3 
18.6631 10.0602 7.1671 3 
20.0993 8.62487 5.73152 3 
17.2274 11.4955 5.73137 3 
20.099 11.4955 5.73167 3 
21.5351 10.0602 4.29613 3 
24.4062 10.0603 4.29637 3 
21.5346 10.0603 7.16723 3 
22.9708 8.6251 5.73174 3 
22.9703 11.4957 5.73185 3 
24.406 10.0604 7.16728 3 
28.712 11.495 5.73175 3 
27.2769 10.0599 4.29637 3 
25.8419 8.62491 5.73184 3 
27.2769 10.06 7.16724 3 
25.8412 11.4957 5.73189 3 
1.43482 12.9298 4.29591 3 
1.43485 15.801 4.2956 3 
1.43504 12.93 7.16708 3 
1.43519 15.8015 7.16701 3 
2.8698 14.3648 5.73121 3 
4.30477 12.9282 4.29529 3 
4.30406 15.7989 4.29455 3 
7.17556 12.9274 4.29453 3 
7.17177 15.795 4.29276 3 
4.30517 12.9286 7.16686 3 
4.30478 15.7997 7.16673 3 
7.17638 12.928 7.16669 3 
5.73923 14.3626 5.73067 3 
7.1733 15.7965 7.16651 3 
10.0395 15.7913 4.28563 3 
10.047 12.9277 4.29298 3 
10.0485 12.9294 7.1664 3 
8.61052 14.3624 5.73022 3 
10.0464 15.7986 7.16681 3 
11.4817 14.3636 5.72749 3 
12.92 12.929 4.2933 3 
15.7925 12.9298 4.29441 3 
12.9186 15.7949 4.28722 3 
15.7946 15.7968 4.29038 3 
12.9195 12.9311 7.16588 3 
15.7908 12.9316 7.16689 3 
12.9158 15.8013 7.16219 3 
14.3553 14.3654 5.72899 3 
15.7904 15.8018 7.1662 3 
18.664 12.9302 4.29541 3 
18.666 15.7993 4.29332 3 
18.663 12.9311 7.16714 3 
17.2279 14.3657 5.73079 3 
18.6637 15.8017 7.16696 3 
20.0993 14.3662 5.73148 3 
21.535 12.9308 4.29604 3 
21.5348 15.802 4.29555 3 
24.4057 12.9311 4.29637 3 
24.406 15.8018 4.29609 3 
21.5344 12.9312 7.16728 3 
21.5337 15.8031 7.16725 3 
22.9699 14.3669 5.73183 3 
24.4057 15.8023 7.16729 3 
24.4055 12.9314 7.16732 3 
27.2765 12.9307 4.29631 3 
27.2767 15.8018 4.29613 3 
28.7118 14.3661 5.73165 3 
27.2766 12.9309 7.16725 3 
25.8412 14.3666 5.73187 3 
27.2767 15.8022 7.16722 3 
1.43535 18.6725 4.29523 3 
1.43584 18.6731 7.16691 3 
2.87032 17.2364 5.73092 3 
2.87133 20.1079 5.73045 3 
9.75549e-05 17.2376 5.73152 3 
0.000425128 20.1089 5.73138 3 
4.3045 18.6703 4.29306 3 
7.16815 18.6628 4.28567 3 
4.30625 18.6718 7.16649 3 
5.73917 17.2338 5.73023 3 
7.17546 18.6697 7.16682 3 
5.7405 20.105 5.72756 3 
10.0089 18.6321 4.25185 3 
8.60563 17.2288 5.73068 3 
10.0441 18.6673 7.17719 3 
11.4697 17.2237 5.71469 3 
8.60061 20.093 5.7147 3 
11.3873 20.0106 5.62751 3 
12.9195 18.6462 4.26367 3 
15.8071 18.6554 4.27496 3 
12.8983 18.6626 7.13595 3 
14.3563 17.2292 5.72169 3 
15.8019 18.6615 7.15748 3 
14.3889 20.0583 5.68596 3 
18.6634 18.6733 4.29231 3 
17.2324 17.2325 5.72681 3 
18.6586 18.6781 7.1674 3 
20.0979 17.2387 5.7311 3 
17.2204 20.1163 5.72945 3 
20.1041 20.1043 5.72687 3 
21.5374 18.6707 4.29338 3 
24.4066 18.6727 4.29555 3 
21.535 18.6729 7.16701 3 
22.9705 17.2374 5.73152 3 
22.971 20.1088 5.73094 3 
24.4057 18.6737 7.16724 3 
27.2769 18.6731 4.2959 3 
25.8414 17.2378 5.73174 3 
27.2767 18.6737 7.16719 3 
25.8412 20.1093 5.73158 3 
1.4359 21.5441 4.29529 3 
1.43647 21.5442 7.16686 3 
2.87206 22.9794 5.73087 3 
1.43684 24.4151 7.16706 3 
0.000747078 22.9801 5.73135 3 
1.43632 24.4156 4.29561 3 
4.30584 21.5434 4.29347 3 
4.30652 24.4158 4.29451 3 
7.17173 21.5419 4.2873 3 
7.17361 24.4181 4.29041 3 
4.30793 21.5429 7.16596 3 
7.17813 21.5392 7.16215 3 
5.74222 22.9788 5.72903 3 
7.1786 24.4139 7.16611 3 
4.30844 24.4142 7.16688 3 
10.023 21.5428 4.2637 3 
10.0321 24.4306 4.2749 3 
10.0394 21.5217 7.13592 3 
8.60603 22.9797 5.72166 3 
11.435 23.0124 5.68591 3 
10.0382 24.4255 7.15738 3 
12.9264 24.4105 4.28659 3 
12.9108 21.5342 4.26004 3 
15.787 21.5498 4.28663 3 
15.8026 24.4261 4.26015 3 
12.7706 21.394 6.76501 5 
15.7554 21.5813 7.18031 5 
14.3567 22.9801 5.76853 5 
12.9579 24.379 7.18029 5 
15.9428 24.5663 6.7651 5 
18.6813 21.5297 4.27506 3 
18.6905 24.4174 4.26386 3 
18.6751 21.5348 7.15753 3 
17.2784 22.9479 5.68603 3 
20.1074 22.9805 5.72186 3 
18.674 24.4385 7.13609 3 
21.5398 21.5421 4.29059 3 
24.4069 21.5443 4.29472 3 
21.5417 24.4183 4.28752 3 
24.4076 24.4168 4.29372 3 
21.5348 21.5462 7.16631 3 
22.9712 22.9814 5.72923 3 
24.4056 24.4173 7.16616 3 
24.4051 21.5459 7.16706 3 
21.5353 24.4209 7.1624 3 
27.2771 21.5445 4.29568 3 
27.2775 24.416 4.29542 3 
27.2767 21.545 7.16713 3 
25.8414 22.9807 5.73104 3 
27.2771 24.416 7.16692 3 
1.43657 27.287 4.29589 3 
1.43688 27.2865 7.16711 3 
2.87224 25.8508 5.73144 3 
0.00111358 25.8512 5.73142 3 
4.30681 27.2875 4.29537 3 
7.176 27.2896 4.2932 3 
4.30787 27.2865 7.16704 3 
5.74244 25.8514 5.73073 3 
7.17844 27.2873 7.16675 3 
10.05 27.287 4.29218 3 
8.60929 25.8559 5.72668 3 
10.0548 27.2822 7.16723 3 
11.493 25.844 5.72936 3 
12.9064 27.3049 4.27496 3 
15.794 27.3141 4.26385 3 
12.9114 27.2988 7.15744 3 
14.3245 25.902 5.686 3 
15.815 27.2977 7.13604 3 
18.7046 27.3281 4.25212 3 
17.3261 25.9496 5.6277 3 
18.6693 27.2929 7.17738 3 
20.1129 25.8672 5.71494 3 
21.5454 27.2974 4.28597 3 
24.409 27.2899 4.29341 3 
21.538 27.2904 7.16709 3 
22.973 25.8551 5.72785 3 
24.4073 27.2883 7.16671 3 
27.2781 27.2876 4.29545 3 
25.8422 25.8522 5.73068 3 
27.2778 27.2871 7.16702 3 
2.87246 2.88158 8.60251 3 
2.87242 0.0101724 8.60253 3 
1.437 1.44608 10.038 3 
2.87237 2.88175 11.4734 3 
0.00179099 2.88227 11.4735 3 
0.00177024 2.88207 8.60261 3 
2.87226 0.0105325 11.4735 3 
0.00158888 0.0107379 11.4737 3 
0.00151164 0.0104207 8.60263 3 
5.74382 2.88117 8.60247 3 
4.30792 1.44599 10.0379 3 
7.17974 1.44529 10.0379 3 
5.74353 2.88148 11.4734 3 
5.74345 0.0103438 8.60242 3 
5.74294 0.0109234 11.4737 3 
8.61459 2.88163 8.60243 3 
11.4866 2.88143 8.60252 3 
11.4848 0.0120633 8.60255 3 
8.61536 0.00961016 11.4741 3 
10.0496 1.44666 10.0382 3 
8.61401 2.88216 11.4737 3 
11.4853 2.88267 11.4744 3 
11.4808 0.0158297 11.4784 3 
8.61663 0.00837128 8.60244 3 
14.36 2.88032 8.60258 3 
14.3661 0.012261 8.60264 3 
14.3569 0.0191603 11.4835 3 
12.9228 1.44654 10.039 3 
15.7974 1.44702 10.043 3 
14.3579 2.88293 11.4761 3 
17.2295 2.88227 8.60261 3 
20.102 2.88517 8.60266 3 
20.1066 0.018193 8.6027 3 
17.2285 0.00886687 8.60267 3 
17.2437 0.0245442 11.4905 3 
18.667 1.44961 10.0383 3 
17.2316 2.88462 11.4775 3 
20.1029 2.88588 11.4748 3 
20.1078 0.0194432 11.4744 3 
22.974 2.88534 8.60269 3 
22.9737 0.0134677 8.6027 3 
21.5402 1.45164 10.0386 3 
22.9743 2.8857 11.4744 3 
24.4088 1.44852 10.0384 3 
22.9744 0.0144196 11.4748 3 
25.8436 2.88331 8.60265 3 
25.843 0.011367 8.60265 3 
25.8433 0.0118548 11.4742 3 
27.2785 1.4468 10.0382 3 
25.8438 2.88355 11.4738 3 
2.87229 5.75265 8.60257 3 
1.43701 4.31742 10.038 3 
1.43657 7.18842 10.038 3 
2.87223 5.75274 11.4734 3 
0.00153906 5.75337 8.60263 3 
0.00154985 5.75346 11.4735 3 
5.74331 5.75256 8.60246 3 
4.30798 4.317 10.0379 3 
4.30751 7.188 10.0379 3 
7.17895 4.31715 10.0379 3 
7.17876 7.18804 10.0379 3 
5.74315 5.75265 11.4734 3 
8.61468 5.75264 8.60245 3 
11.4864 5.75237 8.60251 3 
10.0503 4.31722 10.038 3 
10.0503 7.1881 10.0381 3 
8.61431 5.75284 11.4735 3 
11.4858 5.75279 11.4738 3 
14.3578 5.7523 8.60254 3 
12.9225 4.31666 10.0383 3 
15.7938 4.3172 10.0392 3 
12.9216 7.18817 10.0382 3 
15.7926 7.18858 10.0384 3 
14.3572 5.75299 11.4743 3 
17.2284 5.7532 8.60257 3 
20.1 5.75438 8.60261 3 
18.6649 4.31884 10.0386 3 
18.6637 7.18921 10.0383 3 
17.2288 5.75373 11.4747 3 
20.1004 5.75466 11.4742 3 
22.9719 5.75498 8.60267 3 
21.5371 4.32017 10.0384 3 
21.5354 7.18982 10.0382 3 
22.9722 5.75512 11.4739 3 
24.4084 4.31977 10.0382 3 
24.407 7.18992 10.0381 3 
25.843 5.75441 8.60265 3 
27.2786 4.31835 10.0381 3 
27.2779 7.18928 10.038 3 
25.8431 5.75449 11.4736 3 
2.87158 8.62348 8.60251 3 
2.87056 11.4939 8.60253 3 
4.70411e-05 11.495 8.60259 3 
0.000765296 8.6242 8.60257 3 
1.43569 10.0591 10.038 3 
2.87152 8.62344 11.4734 3 
2.87049 11.4938 11.4736 3 
5.89987e-05 11.4949 11.4735 3 
0.000759962 8.62419 11.4734 3 
5.7428 8.62328 8.60248 3 
5.74159 11.4933 8.60247 3 
4.30659 10.0584 10.038 3 
7.17807 10.0585 10.0381 3 
5.74262 8.62322 11.4735 3 
5.74135 11.4931 11.4739 3 
8.61437 8.62347 8.6025 3 
11.4857 8.62378 8.60254 3 
8.61343 11.4938 8.60248 3 
11.4849 11.495 8.60254 3 
11.4854 8.62375 11.474 3 
10.0496 10.059 10.0383 3 
8.61404 8.62342 11.4737 3 
8.61293 11.4935 11.4742 3 
11.4844 11.4945 11.4748 3 
14.3566 8.62415 8.60255 3 
14.3555 11.496 8.60257 3 
12.9207 10.0597 10.0384 3 
15.7917 10.0601 10.0382 3 
14.3566 8.62415 11.474 3 
14.3559 11.4953 11.4744 3 
17.2276 8.62452 8.60256 3 
20.099 8.62484 8.60264 3 
17.2269 11.4959 8.6026 3 
20.0987 11.4957 8.60266 3 
18.6631 10.0602 10.0381 3 
17.2279 8.62451 11.4739 3 
20.0993 8.62487 11.4737 3 
17.2274 11.4955 11.4738 3 
20.099 11.4955 11.4736 3 
22.9707 8.62509 8.60268 3 
22.9701 11.4958 8.60269 3 
21.5346 10.0603 10.0381 3 
22.9709 8.62511 11.4736 3 
22.9703 11.4957 11.4735 3 
24.406 10.0604 10.038 3 
25.8419 8.6249 8.60265 3 
25.8412 11.4957 8.60265 3 
27.277 10.0599 10.038 3 
25.842 8.6249 11.4735 3 
25.8413 11.4956 11.4734 3 
2.87001 14.3649 8.60254 3 
1.43508 12.9299 10.0381 3 
1.43524 15.8014 10.0382 3 
2.86987 14.3646 11.4739 3 
5.73958 14.3629 8.6025 3 
4.30519 12.9285 10.0382 3 
4.30482 15.7996 10.0383 3 
7.17634 12.928 10.0383 3 
7.1733 15.7965 10.0385 3 
5.73924 14.3625 11.4744 3 
8.61141 14.363 8.60252 3 
11.4838 14.3659 8.60256 3 
10.0484 12.9294 10.0386 3 
10.0463 15.7986 10.0383 3 
8.61043 14.3623 11.4749 3 
11.4816 14.3636 11.4776 3 
14.3532 14.368 8.60261 3 
12.9194 12.931 10.0393 3 
15.7907 12.9316 10.0383 3 
12.9157 15.8012 10.043 3 
15.7904 15.8018 10.0391 3 
14.3553 14.3653 11.4762 3 
17.2266 14.3669 8.60262 3 
20.0987 14.3667 8.60267 3 
18.6629 12.9311 10.0381 3 
18.6637 15.8016 10.0383 3 
17.2279 14.3656 11.4744 3 
20.0993 14.3662 11.4739 3 
22.9696 14.3672 8.60268 3 
21.5345 12.9312 10.0381 3 
21.5337 15.803 10.0381 3 
22.97 14.3669 11.4735 3 
24.4056 15.8023 10.038 3 
24.4055 12.9314 10.038 3 
28.7119 14.366 11.4736 3 
28.712 14.3662 8.6026 3 
25.8411 14.3667 8.60266 3 
27.2766 12.9309 10.038 3 
27.2767 15.8022 10.0381 3 
25.8412 14.3665 11.4735 3 
2.87066 17.2368 8.60258 3 
2.8719 20.1083 8.60261 3 
1.43588 18.673 10.0383 3 
2.87038 17.2363 11.4742 3 
2.87141 20.1078 11.4747 3 
0.000510505 20.1091 8.60268 3 
0.000207607 17.2378 8.60265 3 
0.000528854 20.1088 11.4739 3 
0.000217269 17.2374 11.4737 3 
5.73986 17.2347 8.60254 3 
5.74283 20.1072 8.60254 3 
4.30626 18.6718 10.0387 3 
7.17542 18.6697 10.0382 3 
5.73917 17.2337 11.4748 3 
5.74049 20.105 11.4776 3 
8.60676 17.23 8.60251 3 
11.4848 17.2393 8.6026 3 
8.61616 20.1082 8.60255 3 
11.5364 20.1597 8.6026 5 
10.044 18.6673 10.028 3 
8.6055 17.2287 11.4744 3 
11.4695 17.2237 11.4905 3 
8.60051 20.0929 11.4904 3 
11.3872 20.0106 11.5777 3 
14.3471 17.236 8.60266 3 
14.352 20.0056 8.60267 5 
12.8982 18.6625 10.0693 3 
15.8018 18.6615 10.0478 3 
14.3562 17.2291 11.4835 3 
14.3887 20.0583 11.5193 3 
17.2284 17.2362 8.60266 3 
20.0967 17.2399 8.60268 3 
17.2107 20.1259 8.60267 3 
20.1004 20.1082 8.6027 3 
18.6586 18.678 10.0379 3 
17.2323 17.2325 11.4784 3 
20.0979 17.2387 11.4742 3 
17.2203 20.1163 11.4758 3 
20.1041 20.1043 11.4784 3 
22.97 17.2379 8.60268 3 
22.9698 20.11 8.60269 3 
21.535 18.6729 10.0384 3 
22.9706 17.2373 11.4738 3 
22.9711 20.1088 11.4744 3 
24.4057 18.6737 10.0381 3 
25.8412 17.2381 8.60266 3 
25.8409 20.1098 8.6027 3 
27.2768 18.6736 10.0382 3 
25.8414 17.2377 11.4736 3 
25.8414 20.1093 11.4737 3 
2.87281 22.9789 8.60263 3 
1.43689 24.4151 10.0382 3 
1.43652 21.5441 10.0385 3 
2.87215 22.9794 11.4743 3 
0.000867576 22.9801 11.474 3 
0.000817407 22.9801 8.6027 3 
5.74482 22.9767 8.60254 3 
4.30848 24.4142 10.0382 3 
4.30795 21.5428 10.0392 3 
7.17809 21.5392 10.0429 3 
5.74222 22.9788 11.4761 3 
7.17858 24.4139 10.0389 3 
8.6128 22.9707 8.60253 3 
11.3824 22.9755 8.60261 5 
10.0382 24.4254 10.0477 3 
10.0393 21.5217 10.0692 3 
8.6059 22.9797 11.4834 3 
11.4348 23.0123 11.5193 3 
15.1056 23.7293 8.60268 5 
13.6076 22.2308 8.60269 5 
15.7553 21.5813 10.025 5 
12.7704 21.394 10.4402 5 
12.9578 24.379 10.025 5 
14.3565 22.9801 11.4368 5 
15.9427 24.5663 10.4403 5 
17.3309 22.9847 8.60269 5 
20.1005 22.9895 8.60273 3 
18.6751 21.5348 10.0478 3 
20.1074 22.9805 11.4835 3 
17.2783 22.9479 11.5193 3 
18.674 24.4385 10.0694 3 
22.9686 22.9834 8.60273 3 
24.4051 21.5459 10.0383 3 
22.9713 22.9814 11.4761 3 
24.4056 24.4173 10.0393 3 
21.5353 24.421 10.043 3 
21.5348 21.5462 10.0391 3 
25.8408 22.9812 8.60272 3 
27.2768 21.545 10.0383 3 
25.8415 22.9807 11.4743 3 
27.2772 24.416 10.0385 3 
2.87272 25.8504 8.60255 3 
0.00117452 25.851 8.60265 3 
2.87233 25.8509 11.4737 3 
1.43695 27.2865 10.0381 3 
0.00124113 25.8513 11.4739 3 
5.74369 25.8502 8.60249 3 
5.74244 25.8514 11.4743 3 
4.3079 27.2865 10.038 3 
7.17843 27.2873 10.0381 3 
8.61295 25.8521 8.6025 3 
11.5026 25.8343 8.6026 3 
10.0547 27.2822 10.0378 3 
8.60919 25.856 11.4783 3 
11.4928 25.844 11.4758 3 
14.3613 25.9546 8.60271 5 
12.9113 27.2988 10.0478 3 
15.8149 27.2977 10.0693 3 
14.3244 25.902 11.5193 3 
17.1769 25.8005 8.60271 5 
20.0972 25.852 8.60275 3 
20.1128 25.8673 11.4905 3 
18.6693 27.2929 10.0281 3 
17.3259 25.9496 11.5777 3 
22.9706 25.853 8.60272 3 
24.4073 27.2884 10.0387 3 
22.973 25.8552 11.4776 3 
21.538 27.2905 10.0384 3 
25.8417 25.8518 8.6027 3 
25.8423 25.8523 11.4747 3 
27.2779 27.2871 10.0383 3 
1.43688 1.44654 12.9091 3 
0.00184243 2.88272 14.3448 3 
1.43668 1.44717 15.7806 3 
2.87203 2.88227 14.3447 3 
0.00167052 0.0114087 14.3451 3 
2.87169 0.0113313 14.345 3 
4.30744 1.44659 12.9092 3 
7.17857 1.4464 12.9097 3 
5.74268 2.88227 14.3451 3 
4.30661 1.44741 15.7811 3 
7.17716 1.4477 15.7823 3 
5.74148 0.0123061 14.3462 3 
10.0472 1.4491 12.9119 3 
8.61253 2.88353 14.3464 3 
11.4832 2.88517 14.3481 3 
10.046 1.45049 15.7855 3 
8.61275 0.0121435 14.3478 3 
11.4783 0.0188395 14.3548 3 
14.3561 2.8863 14.3496 3 
12.9186 1.45153 12.9148 3 
15.7947 1.45344 12.9178 3 
12.9179 1.45275 15.7878 3 
15.7927 1.45453 15.7895 3 
14.3529 0.0230961 14.359 3 
18.6739 1.45697 12.9194 3 
17.2308 2.88778 14.351 3 
20.1183 0.0299333 14.365 3 
18.6695 1.45644 15.7911 3 
20.1059 2.88923 14.3511 3 
17.2347 0.0271957 14.3632 3 
21.5417 1.45324 12.9122 3 
24.4095 1.44938 12.9104 3 
22.9778 0.017361 14.351 3 
22.9754 2.88676 14.3474 3 
21.5448 1.45629 15.7903 3 
24.4109 1.45061 15.784 3 
27.2787 1.44733 12.9095 3 
25.8443 2.88419 14.3456 3 
27.2792 1.44799 15.7813 3 
25.8443 0.0128602 14.3465 3 
1.43692 4.31767 12.9089 3 
1.43649 7.18849 12.9089 3 
0.00154613 5.75366 14.3446 3 
2.87195 5.75296 14.3445 3 
1.43677 4.31805 15.7803 3 
1.43633 7.18862 15.7801 3 
7.1783 4.31761 12.9092 3 
4.30766 4.3173 12.9089 3 
4.30723 7.18806 12.9089 3 
7.17828 7.18814 12.9092 3 
5.74258 5.75295 14.3447 3 
4.30679 7.18815 15.7804 3 
4.3071 4.31777 15.7805 3 
7.17739 4.31835 15.7813 3 
7.17759 7.18827 15.7809 3 
10.0481 4.31936 15.7824 3 
10.0492 4.31818 12.9098 3 
10.0496 7.18835 12.9095 3 
11.4848 5.75379 14.3458 3 
10.0489 7.18865 15.7813 3 
8.61344 5.75335 14.3452 3 
12.9208 4.31857 12.9107 3 
15.7933 4.31921 12.9117 3 
12.921 7.18861 12.9098 3 
15.7926 7.189 12.91 3 
14.3567 5.75423 14.3463 3 
12.9199 4.32017 15.7833 3 
15.7927 4.32096 15.784 3 
12.9206 7.18907 15.7816 3 
15.7926 7.18953 15.7817 3 
18.6665 4.32053 12.912 3 
18.6643 7.18959 12.9099 3 
17.229 5.7549 14.3467 3 
20.1015 5.75565 14.3466 3 
18.6662 4.3219 15.7845 3 
18.6647 7.19006 15.7817 3 
22.9728 5.75557 14.3456 3 
24.4088 4.32011 12.9097 3 
21.5379 4.32086 12.9104 3 
21.5359 7.19006 12.9095 3 
24.4072 7.19004 12.9092 3 
21.5392 4.3223 15.784 3 
24.4094 4.32072 15.7819 3 
21.5366 7.19049 15.7814 3 
24.4077 7.19025 15.7807 3 
27.2787 4.31862 12.9092 3 
27.278 7.18934 12.909 3 
25.8434 5.75475 14.3449 3 
27.2789 4.31904 15.7807 3 
27.2781 7.18949 15.7802 3 
1.43561 10.059 12.909 3 
6.22003e-05 11.4947 14.3446 3 
2.87024 11.4935 14.3451 3 
2.87129 8.62341 14.3446 3 
1.43548 10.0589 15.7803 3 
0.000769886 8.62419 14.3445 3 
4.30632 10.0583 12.9092 3 
7.17751 10.0582 12.9096 3 
5.74211 8.62313 14.345 3 
5.74072 11.4927 14.3458 3 
4.30588 10.058 15.7809 3 
7.1768 10.0577 15.7817 3 
10.049 10.0586 12.9101 3 
11.4843 11.4933 14.3469 3 
8.6119 11.4925 14.3468 3 
8.61333 8.62329 14.3454 3 
10.0486 10.0581 15.7819 3 
11.4849 8.62368 14.3456 3 
12.9206 10.0592 12.9101 3 
15.7922 10.0596 12.9097 3 
14.3566 8.62409 14.3456 3 
12.9207 10.0586 15.7818 3 
15.7927 10.0591 15.7815 3 
14.3566 11.4939 14.3464 3 
18.6637 10.0599 12.9094 3 
17.2284 8.6245 14.3454 3 
18.6644 10.0595 15.7811 3 
20.0999 11.4949 14.3452 3 
20.1 8.62494 14.3452 3 
17.2285 11.4944 14.3458 3 
22.9708 11.4954 14.3447 3 
21.5351 10.0602 12.9092 3 
24.4063 10.0603 12.909 3 
21.5358 10.06 15.7807 3 
22.9713 8.62518 14.3448 3 
24.4067 10.0602 15.7803 3 
25.8423 8.62494 14.3446 3 
27.277 10.0599 12.9089 3 
27.2772 10.0598 15.7801 3 
25.8416 11.4954 14.3445 3 
1.43499 12.9296 12.9093 3 
1.435 15.8009 12.9096 3 
1.43474 12.9293 15.7808 3 
1.43452 15.8002 15.7815 3 
2.86945 14.364 14.3457 3 
4.30485 12.9281 12.9098 3 
4.30416 15.7988 12.9106 3 
7.1755 12.9273 12.9106 3 
7.17172 15.7949 12.9124 3 
4.3027 15.7976 15.7843 3 
4.30422 12.9275 15.7822 3 
7.17426 12.9259 15.7844 3 
7.16863 15.7919 15.7907 3 
5.73819 14.3614 14.3476 3 
10.0468 12.9276 12.9122 3 
10.0393 15.7912 12.9196 3 
11.4824 14.3604 14.3512 3 
8.60747 14.3589 14.3513 3 
10.0471 12.9263 15.7847 3 
10.0438 15.7918 15.7913 3 
12.9199 12.929 12.9118 3 
15.7923 12.9297 12.9107 3 
12.9184 15.7948 12.9179 3 
15.7946 15.7967 12.9148 3 
12.9206 12.9272 15.7841 3 
15.7933 12.928 15.7833 3 
12.9206 15.7937 15.7896 3 
15.7953 15.7955 15.7878 3 
14.3571 14.3619 14.3497 3 
20.1007 14.3648 14.3464 3 
18.664 12.9301 12.9098 3 
18.666 15.7992 12.9119 3 
18.6652 12.9289 15.7823 3 
18.6672 15.7978 15.7854 3 
17.23 14.3631 14.3482 3 
21.535 12.9307 12.9093 3 
21.5348 15.8019 12.9098 3 
24.4059 12.9311 12.909 3 
24.4062 15.8017 12.9093 3 
21.5359 12.93 15.7812 3 
21.5361 15.8006 15.7823 3 
24.4069 15.8009 15.7811 3 
24.4064 12.9306 15.7804 3 
22.9707 14.3661 14.3451 3 
28.7119 14.3655 14.3449 3 
27.2767 12.9306 12.909 3 
27.2768 15.8017 12.9091 3 
25.8416 14.366 14.3447 3 
27.2768 12.9303 15.7803 3 
27.277 15.8011 15.7807 3 
2.86942 17.2353 14.3467 3 
1.4355 18.6724 12.91 3 
2.87021 20.1077 14.3467 3 
0.000472707 20.1084 14.3454 3 
1.43492 18.6721 15.7817 3 
8.46719e-05 17.2368 14.3452 3 
4.30459 18.6702 12.9121 3 
7.16811 18.6627 12.9195 3 
5.73582 17.2308 14.3513 3 
4.30315 18.6706 15.7846 3 
7.16859 18.6671 15.7913 3 
5.73734 20.1058 14.351 3 
10.0088 18.6321 12.9533 3 
8.59501 17.2183 14.3652 3 
11.4785 17.221 14.3633 3 
10.0399 18.6632 15.7939 3 
8.59781 20.1019 14.3632 3 
11.4717 20.0951 14.3624 3 
12.9193 18.6461 12.9415 3 
15.807 18.6553 12.9302 3 
14.3603 17.2252 14.359 3 
12.919 18.6657 15.7905 3 
15.7952 18.668 15.7889 3 
14.3589 20.0999 14.3569 3 
18.6633 18.6733 12.9129 3 
17.2284 20.1082 14.3528 3 
18.6654 18.6712 15.7859 3 
17.2349 17.2295 14.3547 3 
20.1005 17.2362 14.3478 3 
20.1071 20.1018 14.3547 3 
21.5374 18.6707 12.9119 3 
24.4067 18.6727 12.9097 3 
22.972 17.236 14.3463 3 
22.9736 20.1067 14.348 3 
21.5389 18.6695 15.7853 3 
24.4079 18.6716 15.7821 3 
27.277 18.6731 12.9093 3 
27.2774 18.6724 15.781 3 
25.842 17.2369 14.3451 3 
25.8424 20.1083 14.3456 3 
1.43608 21.5441 12.9099 3 
1.43649 24.4156 12.9096 3 
2.87088 22.98 14.3462 3 
1.43544 21.5441 15.7816 3 
1.43592 24.4161 15.7813 3 
0.000870144 22.9801 14.3454 3 
4.30491 24.4168 15.7831 3 
4.30659 24.4158 12.9106 3 
7.17356 24.4181 12.9147 3 
4.30594 21.5433 12.9117 3 
7.17166 21.5419 12.9178 3 
4.30412 21.544 15.784 3 
7.17056 21.544 15.7895 3 
7.17228 24.4188 15.7877 3 
5.73883 22.9806 14.3496 3 
10.032 24.4306 12.9302 3 
10.0228 21.5428 12.9415 3 
8.60194 22.9838 14.3589 3 
10.0424 21.5425 15.7904 3 
10.0446 24.4188 15.7889 3 
11.4765 22.9825 14.3569 3 
12.9106 21.5341 12.9452 3 
15.7869 21.5498 12.9186 3 
15.8025 24.4261 12.9452 3 
12.9263 24.4105 12.9186 3 
14.3566 22.9802 14.3502 3 
12.9178 21.5413 15.7871 3 
15.7925 21.5442 15.7864 3 
12.9207 24.4161 15.7864 3 
15.7954 24.419 15.7871 3 
18.6905 24.4175 12.9415 3 
18.6813 21.5297 12.9302 3 
17.2367 22.9778 14.3569 3 
20.1114 22.9764 14.3588 3 
18.6686 21.5415 15.7888 3 
18.6708 24.4177 15.7904 3 
21.5399 21.5421 12.9147 3 
24.407 21.5443 12.9106 3 
21.5418 24.4183 12.9178 3 
24.4077 24.4169 12.9116 3 
22.9747 22.9796 14.3495 3 
21.5411 21.5415 15.7876 3 
24.4087 21.5434 15.783 3 
24.4095 24.4162 15.7838 3 
21.5429 24.4162 15.7893 3 
27.2777 24.416 12.9099 3 
27.2773 21.5445 12.9096 3 
27.2778 21.5441 15.7813 3 
27.2783 24.416 15.7815 3 
25.8428 22.9801 14.3461 3 
1.43674 27.2871 12.9093 3 
2.87131 25.8519 14.3456 3 
1.43634 27.2878 15.781 3 
0.00131984 25.8518 14.3453 3 
7.17595 27.2896 12.9118 3 
4.30693 27.2875 12.9097 3 
4.30568 27.2886 15.7822 3 
7.17445 27.2908 15.7854 3 
5.73993 25.8535 14.348 3 
10.0499 27.287 12.9129 3 
11.4848 25.8521 14.3528 3 
10.0478 27.2891 15.786 3 
8.60613 25.8585 14.3547 3 
14.3543 25.8604 14.3569 3 
12.9062 27.305 12.9303 3 
15.7939 27.3142 12.9415 3 
12.918 27.2923 15.7889 3 
15.7942 27.2945 15.7904 3 
17.2415 25.8651 14.3624 3 
18.7045 27.3282 12.9532 3 
18.6734 27.297 15.7938 3 
20.1155 25.8583 14.3631 3 
21.5454 27.2975 12.9194 3 
24.4091 27.2899 12.912 3 
22.9762 25.8544 14.3509 3 
21.5449 27.293 15.791 3 
24.4105 27.2896 15.7843 3 
27.2783 27.2877 12.9099 3 
25.8435 25.8524 14.3466 3 
27.2788 27.2881 15.7815 3 
1.43647 1.44754 18.6522 3 
2.87161 2.8828 17.2163 3 
0.00184873 2.88321 17.2164 3 
2.8714 2.88299 20.0878 3 
0.00177764 2.88334 20.0877 3 
2.87113 0.011967 17.217 3 
2.8711 0.0119596 20.0881 3 