ITEM: TIMESTEP
64041
ITEM: NUMBER OF ATOMS
18
ITEM: BOX BOUNDS pp pp pp
0.0000000000000000e+00 2.8712000000000000e+01
0.0000000000000000e+00 2.8712000000000000e+01
0.0000000000000000e+00 2.8712000000000000e+01
ITEM: ATOMS x y z c_cna 
12.7706 21.394 6.76501 5 
15.7554 21.5813 7.18031 5 
14.3567 22.9801 5.76853 5 
12.9579 24.379 7.18029 5 
15.9428 24.5663 6.7651 5 
11.5364 20.1597 8.6026 5 
14.352 20.0056 8.60267 5 
11.3824 22.9755 8.60261 5 
15.1056 23.7293 8.60268 5 
13.6076 22.2308 8.60269 5 
15.7553 21.5813 10.025 5 
12.7704 21.394 10.4402 5 
12.9578 24.379 10.025 5 
14.3565 22.9801 11.4368 5 
15.9427 24.5663 10.4403 5 
17.3309 22.9847 8.60269 5 
14.3613 25.9546 8.60271 5 
17.1769 25.8005 8.60271 5 
ITEM: TIMESTEP
64042
ITEM: NUMBER OF ATOMS
18
ITEM: BOX BOUNDS pp pp pp
0.0000000000000000e+00 2.8712000000000000e+01
0.0000000000000000e+00 2.8712000000000000e+01
0.0000000000000000e+00 2.8712000000000000e+01
ITEM: ATOMS x y z c_cna 
12.7706 21.394 6.76501 5 
15.7554 21.5813 7.18031 5 
14.3567 22.9801 5.76853 5 
12.9579 24.379 7.18029 5 
15.9428 24.5663 6.7651 5 
11.5364 20.1597 8.6026 5 
14.352 20.0056 8.60267 5 
11.3824 22.9755 8.60261 5 
15.1056 23.7293 8.60268 5 
13.6076 22.2308 8.60269 5 
15.7553 21.5813 10.025 5 
12.7704 21.394 10.4402 5 
12.9578 24.379 10.025 5 
14.3565 22.9801 11.4368 5 
15.9427 24.5663 10.4403 5 
17.3309 22.9847 8.60269 5 
14.3613 25.9546 8.60271 5 
17.1769 25.8005 8.60271 5 
