ITEM: TIMESTEP
64000
ITEM: NUMBER OF ATOMS
2001
ITEM: BOX BOUNDS pp pp pp
0.0000000000000000e+00 2.8712000000000000e+01
0.0000000000000000e+00 2.8712000000000000e+01
0.0000000000000000e+00 2.8712000000000000e+01
ITEM: ATOMS x y z 
1.41655 1.43663 1.42955 
2.71232 2.87161 3.00102 
2.82162 0.066376 2.94677 
0.0160324 0.0885267 2.97807 
0.079088 2.72037 0.105824 
4.12838 1.37704 1.5138 
7.17043 1.55967 1.50154 
7.02538 1.46496 4.07301 
5.64083 2.81227 2.81814 
5.71516 2.80653 0.145535 
10.1516 1.37827 1.36321 
8.54971 3.15203 2.75456 
11.4302 2.79853 2.90615 
11.4562 0.108578 2.79709 
11.5235 2.93368 0.00650409 
8.67875 3.05749 0.0869341 
8.55154 0.101812 0.110131 
13.1305 1.58847 1.47041 
15.8141 1.42672 1.33179 
14.3365 2.80675 2.84211 
14.1762 0.0294 2.79819 
18.8414 1.56706 1.34833 
17.3479 3.03126 2.86018 
20.176 3.13097 2.83657 
20.094 0.143061 2.763 
17.338 2.8873 0.0836719 
17.3065 0.0762274 2.6976 
22.9437 3.00377 2.88577 
24.3397 1.51339 1.52565 
22.8024 0.0974826 3.1211 
21.5681 1.50932 1.56772 
23.0286 2.78308 0.0429881 
28.6981 3.11466 2.88825 
28.5928 0.127928 0.0524788 
27.3186 1.34277 1.54813 
25.9326 3.20331 2.7433 
25.9952 2.80477 0.097042 
25.6787 0.117861 3.03496 
25.8008 0.0116285 0.0168864 
1.45331 4.3932 1.44109 
1.62842 7.05523 1.38131 
1.36121 7.2035 4.094 
2.97893 5.72802 2.94373 
0.00351277 5.71701 2.69523 
4.17272 4.30478 1.57759 
7.15058 4.29893 1.52922 
4.2648 7.0711 1.52677 
7.10035 7.14755 1.27013 
5.75896 5.61493 2.79138 
5.84345 5.56133 0.0432778 
9.98783 4.37492 1.47423 
10.0218 7.29893 1.3981 
8.59945 5.70603 2.68267 
11.3865 5.67632 2.82025 
12.8443 4.27216 1.64818 
15.6697 4.32733 1.41101 
12.7169 7.28307 1.53198 
15.776 7.17824 1.48007 
14.3485 5.9071 2.84911 
14.3789 5.72587 0.0153839 
18.5244 4.57712 1.48292 
18.8072 7.10118 1.4212 
17.1711 5.86926 2.91905 
20.2696 5.84442 3.08855 
24.4081 4.32915 1.22742 
21.5258 4.33638 1.40242 
21.6904 7.15635 1.3566 
23.1321 5.96015 2.65078 
24.6737 7.26132 1.24829 
27.3621 4.43223 1.33892 
27.4921 6.98223 1.3901 
25.8359 5.79916 2.80945 
1.63818 10.1343 1.33038 
2.89788 8.57812 2.72626 
2.76505 11.4441 2.80958 
0.065985 11.3995 2.84587 
0.0812967 8.72512 2.74533 
0.163106 8.58163 0.0687418 
4.28787 9.96749 1.37404 
7.18558 10.0088 1.37682 
5.82971 8.65969 2.82131 
5.65313 11.4329 2.85199 
5.69313 8.54187 0.114476 
10.0294 10.0607 1.32231 
8.62977 8.68032 2.73716 
10.0965 10.2116 4.09584 
11.5084 8.75022 2.94651 
8.56992 11.6073 2.82595 
11.6025 11.7067 2.67976 
8.68943 11.5842 0.0973988 
11.3727 8.66319 0.0121216 
12.9095 10.1556 1.4807 
15.8591 9.97232 1.33645 
14.3745 8.74696 2.8321 
14.5818 11.5008 2.91329 
14.1834 11.4648 0.0923732 
14.3206 8.66268 0.105658 
18.7564 9.91661 1.33591 
17.3539 8.62663 2.88885 
20.4851 8.70942 2.75939 
17.4106 11.5549 2.85659 
20.0671 11.566 2.8008 
17.2651 11.4508 0.0615277 
21.6241 10.1585 1.23689 
23.1695 8.81551 2.85292 
23.0671 11.496 2.80264 
24.48 10.2322 1.3249 
23.1249 8.83184 0.00021699 
27.3013 10.0887 1.28996 
25.8571 8.60273 2.89922 
26.0409 11.4809 2.76747 
28.656 11.5345 0.00164698 
25.9307 11.6751 0.030608 
1.41199 13.1361 1.43542 
1.38172 15.7693 1.52223 
2.89524 14.3782 2.97138 
2.86456 14.4817 0.00735555 
4.05797 15.7405 1.46135 
4.26709 12.954 1.51538 
7.06203 12.931 1.36619 
7.15474 15.7071 1.40269 
5.82945 14.4789 2.90965 
5.57695 14.4477 0.0886824 
10.1301 13.0462 1.39819 
10.0783 15.722 1.52565 
8.65956 14.197 2.81278 
9.9925 15.7486 4.08379 
11.5774 14.6329 2.72228 
11.7315 14.4976 0.0497185 
8.58847 14.1483 0.0759414 
13.1562 13.0911 1.65958 
15.7395 13.0008 1.31256 
13.1309 15.9341 1.36895 
15.9543 15.8252 1.4855 
14.3808 14.562 2.86357 
18.6036 12.9601 1.36326 
18.6158 15.7401 1.58332 
17.2487 14.1982 3.04154 
20.2775 14.2929 2.78911 
17.307 14.3494 0.0185266 
21.7998 12.9603 1.33006 
21.4405 15.9523 1.58794 
23.1061 14.4927 2.68222 
24.501 15.924 1.3208 
22.9955 14.7203 0.00753491 
24.6214 13.058 1.16521 
28.5798 14.3808 2.70643 
27.3208 13.0258 1.26937 
27.2558 15.9445 1.41647 
27.4134 12.8266 4.05073 
25.8366 14.3695 2.67851 
1.44816 18.7542 1.52136 
2.84763 17.0874 3.01362 
2.80836 20.0035 3.01542 
0.0480273 17.1804 2.97083 
0.0945898 20.127 2.82869 
2.80295 20.2035 0.125382 
0.152491 17.2656 0.0227839 
2.8718 17.2542 0.0476363 
4.28339 18.7447 1.41352 
7.12565 18.6737 1.40523 
5.55893 17.177 2.94423 
5.61403 20.0968 2.98569 
5.76495 17.0776 0.110663 
10.2505 18.5187 1.22433 
8.70841 17.3601 2.75401 
11.4795 17.4216 2.73923 
8.51152 20.167 2.7259 
11.4719 20.0795 2.9403 
13.1515 18.7857 1.47961 
15.6278 18.788 1.39051 
14.4033 17.2355 2.8228 
14.3919 20.0254 2.90108 
20.2243 17.1305 0.119119 
17.1271 20.2489 0.119603 
18.7112 18.8049 1.47485 
17.3818 17.274 2.81601 
20.0431 17.2575 2.91468 
17.2395 20.1525 2.9969 
19.9924 20.0985 3.03567 
17.0782 17.405 0.0213646 
23.0256 20.2079 0.153671 
21.5584 18.771 1.48468 
24.4242 18.7241 1.39951 
22.9899 17.3737 2.84216 
22.971 20.0974 3.01305 
27.3504 18.4882 1.53176 
25.8378 17.2111 2.95089 
25.9105 20.1223 2.75422 
28.6804 20.1538 0.041147 
25.8106 20.0377 0.0948543 
1.49412 21.6476 1.68919 
2.94911 23.1826 3.03868 
1.4051 24.3436 1.40192 
2.80211 22.9913 0.0291469 
0.076317 22.8738 2.9988 
4.29307 24.5932 1.52139 
4.15567 21.68 1.48383 
6.94771 21.4639 1.43781 
5.68222 23.0186 2.99524 
6.95516 24.552 1.33972 
5.64676 23.0241 0.076897 
10.1017 21.5736 1.33786 
8.39888 22.9731 2.68148 
11.3604 22.9699 2.90488 
10.1251 24.4962 1.35859 
8.49061 22.9276 0.115054 
12.9343 21.4047 1.52471 
15.8139 21.604 1.37667 
14.3774 22.8643 2.80041 
12.8478 24.2967 4.08526 
15.869 24.3661 1.51604 
12.9256 24.4295 1.5883 
14.464 22.9505 0.0443823 
18.9635 21.5453 1.48643 
17.1676 22.8652 3.06929 
20.1841 23.0532 3.02769 
18.5315 24.3154 1.59694 
21.6001 21.5609 1.57264 
24.2928 21.4636 1.73549 
23.0989 23.1341 3.07159 
24.6093 24.488 1.45788 
21.4935 24.429 1.37793 
23.0378 23.0978 0.0991785 
27.301 21.4913 1.50263 
26.0575 23.011 2.98156 
27.3333 24.4815 1.45303 
25.9286 23.0079 0.0742309 
1.26135 27.201 1.47444 
2.83021 25.991 2.94317 
0.139795 25.7759 2.92756 
2.81563 28.6262 0.0896123 
5.7306 28.7011 2.97499 
4.20096 27.2974 1.69133 
7.10607 27.2702 1.6048 
5.70112 26.0484 2.96039 
5.67091 25.846 0.000235253 
5.62585 28.5662 0.214322 
8.5165 28.6282 3.15882 
10.0947 27.2802 1.50753 
8.40802 25.8093 2.79947 
11.4366 25.7521 2.83891 
8.70713 25.9255 0.124494 
11.5217 25.8878 0.255054 
11.6352 28.6116 0.101999 
12.9843 27.3503 1.4636 
15.759 27.4393 1.33808 
14.4258 25.7363 2.88821 
14.4506 25.8331 0.147233 
18.5716 27.1084 4.07095 
18.7633 27.3628 1.52553 
17.3114 25.6201 2.8027 
20.3502 25.7286 2.91432 
19.9248 25.9649 0.071632 
21.6386 27.4598 1.43964 
22.939 25.9015 2.83302 
24.3621 27.3971 1.60113 
27.2784 27.2051 1.61478 
25.9643 25.746 2.93522 
25.7729 25.8888 0.0443496 
1.2577 1.59478 4.43598 
4.06332 1.37075 4.3308 
1.17139 1.3496 7.1999 
2.75804 2.77339 5.97555 
2.76233 0.0544318 5.84927 
4.21666 1.49674 7.32056 
7.21797 1.38479 7.21291 
5.68157 2.70743 5.67316 
5.81858 0.219061 5.85829 
10.037 1.43556 4.37107 
9.98437 1.48814 7.33155 
8.53958 2.81066 5.81786 
11.3195 2.70382 5.91505 
8.68036 0.23636 5.75939 
13.0307 1.41371 4.41791 
15.9412 1.48975 4.19598 
12.9381 4.10036 4.4159 
13.0685 1.54963 6.86668 
15.794 1.45634 7.10116 
14.4294 2.87206 5.78469 
14.3166 0.0122754 5.67996 
18.837 1.41717 4.25488 
18.6948 1.47139 7.24934 
17.1638 3.13798 5.66977 
20.0567 2.92373 5.86618 
17.2017 0.106131 5.60606 
21.4806 1.46946 4.44386 
24.2852 1.66914 4.17733 
21.6206 1.42929 7.03048 
24.3869 1.40482 7.03544 
22.9542 2.88796 5.85234 
27.2872 1.4448 4.19217 
28.6051 2.84965 5.76377 
27.2542 1.24384 7.15958 
25.9464 2.88536 5.65257 
25.8207 0.0847311 5.64778 
1.47815 4.36193 4.46857 
1.29359 4.29953 7.21234 
1.43425 7.28176 7.16632 
2.78095 5.96278 5.70465 
4.29895 7.20851 4.1534 
7.20382 4.25563 4.44466 
4.17246 4.15548 4.32374 
7.11803 7.29046 4.14882 
7.14978 4.45739 7.09193 
4.30644 7.51195 7.04924 
4.38355 4.51675 7.01823 
5.69308 5.88224 5.61416 
6.97383 7.16649 6.92069 
10.0684 4.23901 4.46782 
10.0324 7.35608 4.2167 
9.9201 4.32166 7.33925 
8.39565 5.82173 5.63829 
10.1029 7.19868 7.17749 
11.295 5.83632 5.69298 
15.7413 4.37446 4.45063 
12.904 7.33146 4.22284 
15.8348 7.21481 4.32675 
12.8095 4.51714 7.24602 
15.8976 4.1891 7.18331 
12.8536 7.11348 7.20267 
14.2776 5.57184 5.87458 
15.6048 6.96437 7.17719 
18.6799 4.43474 4.42561 
18.8696 7.34729 4.31339 
18.7595 4.42612 7.23806 
17.2103 5.71684 5.82548 
18.5392 7.27435 7.20427 
20.3954 5.74477 5.71531 
21.7094 4.24905 4.36915 
21.7767 7.233 4.30315 
24.4495 7.17228 4.14791 
24.5487 4.43229 4.35114 
21.6156 4.38712 7.12263 
24.5924 4.45421 7.09396 
21.4409 7.15393 7.14903 
22.9951 5.75536 5.58214 
24.5087 7.1733 7.32222 
27.3229 4.36823 4.30235 
27.1675 7.13166 4.15188 
28.6474 5.80808 5.45156 
27.3339 4.34355 7.12207 
26.0377 5.89498 5.70191 
27.4171 7.32525 7.1621 
1.5331 9.94501 4.12718 
1.43538 10.0943 7.12599 
2.78055 8.63934 5.69397 
2.80436 11.4662 5.5941 
0.136195 8.76907 5.60495 
0.202627 11.5715 5.51421 
4.26739 9.96403 4.24703 
7.28492 10.1417 4.24697 
4.32763 10.1782 7.20761 
5.779 8.7418 5.57337 
7.06309 10.1807 7.03593 
5.69449 11.3807 5.59975 
8.64527 8.57582 5.59603 
10.0488 10.1934 6.94811 
11.7119 8.55712 5.80124 
8.54793 11.6078 5.69535 
11.4964 11.5686 5.60591 
12.8864 10.2117 4.32633 
15.8152 10.1318 4.29927 
13.0712 10.1653 7.15846 
14.5008 8.49825 5.56359 
15.8936 9.97414 7.08677 
14.3491 11.4059 5.62167 
18.7229 10.1677 4.25433 
17.3144 8.50519 5.71303 
18.6588 9.90949 7.34263 
19.9685 8.76379 5.67994 
17.4184 11.5526 5.8206 
20.2043 11.5431 5.61239 
21.5689 10.0944 4.21171 
24.4302 9.87696 4.4263 
21.4005 9.92828 7.32802 
22.9136 8.47652 5.88479 
22.9326 11.3381 5.67351 
24.3881 10.1627 7.09172 
27.403 10.1416 4.23985 
25.9402 8.65827 5.98338 
27.3922 10.2182 7.15737 
25.8734 11.2981 5.5385 
1.34045 12.9496 4.24778 
1.4265 15.5788 4.30353 
1.34534 13.0507 7.15838 
1.35399 15.609 7.11289 
3.02623 14.2708 5.55719 
4.28525 12.9143 4.14452 
4.50739 15.8123 4.37279 
7.08517 12.9346 4.15048 
7.0895 15.8958 4.26364 
4.36555 12.83 7.0577 
4.3719 15.6546 7.16173 
7.23711 12.7008 7.3064 
5.91227 14.0003 5.63124 
6.94076 15.5291 7.05464 
10.0167 13.031 4.19024 
9.89309 13.0506 7.14246 
8.57216 14.3106 5.60604 
10.0686 15.6892 7.15663 
11.5235 14.44 5.61023 
12.8593 13.0032 4.40377 
15.7496 12.7857 4.44405 
12.8733 15.7701 4.25595 
16.0946 15.7916 4.31657 
12.8987 12.9727 7.11048 
15.9378 12.8003 7.20077 
12.923 15.6873 6.98226 
14.4293 14.258 5.68254 
15.8618 15.7194 7.18881 
18.7122 12.9536 4.425 
18.8233 15.8607 4.31715 
18.8121 12.9277 7.33767 
17.3289 14.3124 5.90965 
18.5548 15.7744 7.26672 
19.9009 14.4294 5.79036 
21.6834 12.9726 4.2712 
21.4688 15.9546 4.28339 
24.5684 13.0086 4.14501 
24.3354 15.7776 4.19265 
21.5548 13.0243 7.21475 
21.6444 15.7949 7.27919 
22.9177 14.2638 5.77747 
24.5029 15.8312 7.23445 
27.2828 15.8449 4.27544 
24.6376 12.771 7.03375 
28.4722 14.2436 5.62588 
27.1966 12.7947 7.02152 
25.6018 14.4991 5.55006 
27.1873 15.7007 7.14197 
1.3395 18.5131 4.36459 
1.2652 18.6292 7.0518 
2.76984 17.031 5.78463 
2.95435 19.9698 5.57914 
4.23775 18.5284 4.251 
7.29003 18.6099 4.26608 
4.20871 18.7516 7.26223 
5.77555 17.1707 5.76124 
7.20023 18.5983 7.24061 
5.96913 19.7896 5.76865 
9.73843 18.7311 4.20488 
8.49715 17.0262 5.7527 
9.83249 18.5452 7.1222 
11.3387 17.1738 5.59073 
8.39983 20.0412 5.68974 
11.2444 19.9888 5.63197 
12.957 18.7089 4.33487 
16.0153 18.5055 4.35266 
12.8058 18.55 7.07272 
14.5132 17.0382 5.66466 
15.642 18.6148 7.11693 
14.4417 19.9979 5.60614 
18.5944 18.6499 4.33831 
17.3249 17.1166 5.65711 
18.5053 18.7665 7.15817 
20.1994 17.3604 5.91098 
17.2439 20.163 5.7028 
20.0221 20.2397 5.77035 
21.5338 18.6944 4.44634 
24.4718 18.7249 4.49502 
21.4563 18.7201 7.31604 
22.9786 17.1976 5.73283 
22.8492 19.9279 5.7347 
24.2195 18.7735 7.30179 
27.2742 18.5975 4.44579 
28.6692 17.076 5.74962 
28.5771 19.9317 5.82962 
25.8411 17.1775 5.7378 
27.1239 18.4825 7.24791 
25.8979 20.0253 5.75732 
1.53504 21.4199 4.42619 
1.47463 21.4444 7.19825 
2.85448 22.9873 5.74008 
1.44114 24.3842 7.17716 
0.199422 22.9373 5.64949 
4.34441 21.4709 4.32944 
4.35227 24.5721 4.38277 
7.02825 21.5196 4.31737 
7.09507 24.4899 4.33462 
4.4176 21.455 7.16206 
7.21649 21.3958 7.30434 
5.73426 23.0065 5.75771 
7.25644 24.2952 7.20872 
4.26022 24.3484 7.18304 
9.8165 21.5017 4.13157 
10.0311 24.4537 4.27687 
9.86152 21.574 7.09558 
8.44056 22.9266 5.52075 
11.3521 22.9367 5.68223 
9.96763 24.3652 7.26099 
12.7558 21.4961 4.31985 
15.8103 21.4537 4.33311 
15.8519 24.3364 4.3535 
12.7164 21.2181 6.78399 
15.712 21.5572 7.19334 
14.3463 22.9507 5.94466 
12.9794 24.4424 7.13792 
18.7585 21.6742 4.28366 
18.7942 24.4181 4.50608 
18.5914 21.5485 7.33752 
17.2901 23.0207 5.80495 
20.2467 22.9556 6.03918 
18.8043 24.4613 7.31131 
21.5109 21.6477 4.36868 
24.4336 21.4919 4.28797 
21.7875 24.5808 4.61583 
24.4809 24.4545 4.44395 
21.5797 21.5732 7.31007 
22.9345 22.8469 5.89837 
24.5752 24.4858 7.17773 
24.2752 21.5573 7.13648 
21.6737 24.5828 7.18597 
27.3756 21.5296 4.2651 
27.4334 24.3682 4.33458 
27.2865 21.6524 7.18913 
25.7845 22.9047 5.70477 
27.2667 24.2625 7.00384 
1.44342 24.6103 4.27312 
1.38287 27.3911 4.28564 
1.48368 27.2185 7.20896 
2.82691 25.8453 5.65626 
0.00445086 25.8382 5.73379 
4.30681 27.489 4.56004 
7.07233 27.2986 4.51064 
4.40121 27.2681 7.09565 
5.71322 25.858 5.74721 
7.08452 27.1807 7.29689 
9.97938 27.201 4.37634 
11.3806 28.6521 5.582 
8.57585 25.7579 5.94023 
9.99203 27.2806 7.1951 
11.2172 25.7918 5.84831 
12.9046 27.2524 4.35081 
15.92 27.461 4.17583 
12.6475 27.3632 7.0031 
14.2608 25.8786 5.70142 
15.8435 27.3655 7.02967 
15.8793 24.662 6.73673 
20.0589 28.5707 5.74127 
17.2001 26.0792 5.47852 
18.7468 27.3539 7.23844 
20.149 25.9291 5.83488 
21.627 27.315 4.51487 
24.3951 27.2237 4.34673 
22.9961 28.7115 5.77267 
21.6415 27.2449 7.17302 
23.1862 26.0227 5.78498 
24.5125 27.422 7.26119 
27.0936 27.2875 4.44504 
28.5496 28.6874 5.64847 
25.8719 25.9435 5.96141 
27.4045 27.2578 7.22843 
2.64547 2.91425 8.56328 
2.71065 0.0117075 8.56151 
1.38099 1.45335 9.88557 
2.89486 3.12611 11.398 
0.0385754 3.07679 11.4121 
5.62944 2.93679 8.69017 
4.1665 1.3102 10.0784 
6.85396 1.34638 10.035 
5.55358 2.79416 11.5983 
8.47689 2.77967 8.6872 
11.4619 2.95594 8.77219 
11.3399 0.263977 8.61765 
8.54244 0.0341808 11.3393 
9.93907 1.56193 10.0881 
8.49035 2.98843 11.5336 
11.4674 2.81474 11.3066 
11.5284 0.105146 11.4232 
14.2862 2.80339 8.58645 
14.3145 0.151875 8.39377 
14.3032 0.179942 11.5708 
13.0105 1.45491 9.95472 
15.8574 1.69124 10.1835 
14.2377 2.90329 11.5391 
17.4188 2.8968 8.69412 
20.1104 2.98006 8.58383 
20.2412 0.167758 8.48017 
17.1221 0.132908 8.61688 
17.3261 0.132621 11.3575 
18.8915 1.50161 10.1019 
17.3823 2.97446 11.4243 
20.1819 3.03706 11.4567 
23.0268 3.08101 8.55642 
22.915 0.0112958 8.6234 
21.5663 1.6311 10.0246 
23.077 3.05294 11.5062 
24.3453 1.5677 10.0818 
28.5747 2.79414 8.57516 
25.8172 2.85405 8.45928 
25.895 0.120402 8.55506 
25.7227 0.0404764 11.443 
27.2785 1.43059 9.91826 
26.0581 2.82366 11.4583 
2.94877 5.97559 8.33771 
1.40988 4.63714 9.87867 
1.37372 7.24793 10.0297 
2.85836 5.8434 11.3714 
5.71783 5.84626 8.52716 
4.21678 4.42195 10.0092 
4.19019 7.20323 10.0436 
7.2476 4.24212 9.98144 
7.02757 7.20608 9.88817 
5.7808 5.86006 11.3175 
8.59978 5.924 8.64618 
11.3358 5.95936 8.62516 
10.0814 4.45924 10.1552 
10.1284 7.22079 10.0441 
8.67429 5.89712 11.4231 
11.5036 5.84374 11.6564 
14.347 5.63857 8.63498 
12.8783 4.19673 10.0678 
15.8814 4.19266 9.99671 
12.8981 6.95595 10.0772 
15.6965 6.98065 9.98502 
14.3857 5.74175 11.5645 
17.1585 5.74252 8.67493 
20.0226 5.89247 8.45483 
18.7774 4.3566 10.1193 
18.472 7.24358 10.0324 
17.2813 5.69852 11.506 
20.0556 5.88856 11.5686 
22.8979 5.8045 8.65541 
21.3868 4.56635 10.0409 
21.2559 7.35291 10.078 
22.8843 5.89586 11.3076 
24.4677 4.40679 10.0352 
24.2642 7.31888 10.0239 
28.6148 5.68945 8.41846 
25.8297 5.80502 8.72523 
28.5975 5.85619 11.3469 
27.2997 4.29996 10.0104 
27.4066 7.17834 9.86361 
25.872 5.86812 11.3668 
2.89282 8.69154 8.58412 
2.9183 11.5701 8.58936 
0.207569 11.6063 8.47934 
0.0897531 8.595 8.60202 
1.53312 10.2413 9.9841 
2.87848 8.6555 11.4629 
3.0545 11.536 11.4737 
0.146962 11.6729 11.3282 
0.183406 8.75791 11.5199 
5.83863 8.63052 8.43734 
5.63158 11.5202 8.85963 
4.35596 10.0006 10.0586 
7.16839 10.0542 10.0872 
5.83779 8.61937 11.4156 
5.7079 11.4657 11.5852 
8.65903 8.74571 8.3381 
11.5122 8.77182 8.67901 
8.64427 11.3899 8.51605 
11.5877 11.435 8.58898 
11.5232 8.78284 11.2708 
10.0408 10.0906 9.88484 
8.58713 8.6044 11.4466 
8.60176 11.3365 11.5291 
11.5501 11.5024 11.3898 
14.4071 8.61213 8.53271 
14.4266 11.468 8.60205 
13.0334 9.91054 9.97338 
15.7867 10.1225 10.163 
14.4764 8.63933 11.4488 
14.317 11.6109 11.3869 
17.1717 8.47507 8.75833 
19.9164 8.64217 8.70735 
17.2103 11.3146 8.57482 
20.0592 11.4918 8.50113 
18.6626 10.1278 10.0439 
17.3969 8.80931 11.4188 
20.092 8.84066 11.4938 
17.162 11.5209 11.4106 
19.9743 11.4889 11.5889 
22.7693 8.69808 8.71886 
22.8268 11.5546 8.52109 
21.4077 10.0396 9.98269 
22.9298 8.56832 11.5747 
22.9042 11.4715 11.4396 
24.5241 10.2426 9.94585 
25.9489 8.68318 8.79108 
25.9531 11.5185 8.66922 
27.453 10.1462 10.0738 
25.8844 8.63088 11.3314 
25.825 11.4375 11.4991 
2.86896 14.288 8.44782 
1.67486 13.0963 10.0059 
1.53055 15.8697 10.0009 
2.98905 14.4632 11.421 
0.0234926 14.3954 11.4904 
5.677 14.2206 8.57001 
4.27042 12.8463 9.86811 
4.35813 15.8152 9.88297 
7.32152 12.9155 9.99425 
7.09932 15.7195 10.1168 
5.80499 14.3763 11.5258 
8.78216 14.5258 8.52446 
11.423 14.2718 8.60769 
10.1263 12.7971 9.91811 
10.0817 15.8287 9.91175 
8.61391 14.388 11.3083 
11.5416 14.2499 11.386 
14.5018 14.3385 8.34861 
13.0753 12.9519 9.86975 
15.8474 12.8957 9.93213 
12.8075 15.7195 9.90993 
15.782 15.8 9.87604 
14.3692 14.3039 11.3546 
17.2244 14.2213 8.63319 
20.0642 14.4255 8.682 
18.7701 12.7271 9.94039 
18.7001 15.7519 10.0202 
17.1234 14.1745 11.2488 
20.1263 14.27 11.2968 
23.0613 14.2815 8.7136 
21.6385 12.8221 9.99839 
21.4136 15.6942 10.0405 
22.9045 14.4019 11.5218 
24.3653 15.7883 10.2092 
24.431 12.966 10.1121 
28.5575 14.2082 8.6026 
25.8167 14.4445 8.70911 
27.3101 12.9711 10.1353 
27.2917 15.8157 10.1098 
25.8416 14.3567 11.4477 
2.7405 17.348 8.56317 
2.77767 19.9191 8.63595 
1.18482 18.6621 10.0402 
3.07036 17.2732 11.5169 
2.96144 20.0553 11.3166 
5.72671 17.2499 8.4654 
5.75743 20.0746 8.56831 
4.31851 18.6291 9.91759 
7.13867 18.5377 10.0275 
5.83537 17.2871 11.5098 
5.78978 19.9863 11.4129 
8.43636 16.9894 8.44699 
11.497 17.175 8.30563 
8.57747 20.0194 8.72168 
11.3392 20.099 8.51044 
9.92098 18.6853 9.97272 
8.55344 17.2361 11.366 
11.5018 17.2909 11.4152 
8.42507 20.0445 11.5773 
11.2894 19.9962 11.5496 
14.3894 16.9865 8.47959 
14.2912 20.0241 8.512 
13.0081 18.7239 9.90416 
15.6416 18.6937 10.0254 
14.2584 17.1894 11.3698 
14.4891 20.0222 11.4928 
17.1257 17.2925 8.4924 
19.9997 17.2893 8.54777 
16.9845 20.3011 8.60764 
19.899 20.2227 8.64047 
18.4922 18.6724 10.0909 
17.2194 17.1678 11.3723 
20.04 17.3156 11.2232 
17.0705 20.1399 11.5634 
20.0665 20.2042 11.628 
22.8813 17.0481 8.67603 
22.9393 20.1986 8.90051 
21.4537 18.8854 10.0859 
22.8688 17.2575 11.3984 
22.891 20.0475 11.7177 
24.3121 18.7604 10.0554 
28.6977 20.1773 8.6907 
28.6908 17.1726 8.57434 
25.8066 17.2591 8.79693 
26.0016 20.2297 8.66776 
28.6544 20.1328 11.5101 
28.6715 17.2027 11.3941 
27.1597 18.7112 9.96665 
25.9559 17.2297 11.6825 
25.7605 20.0607 11.6864 
2.9966 22.7261 8.63627 
1.59624 24.0953 10.0447 
1.34509 21.4412 10.1276 
3.05616 23.0413 11.6311 
0.146621 22.709 11.534 
5.80378 22.9012 8.56743 
4.45562 24.1821 10.0603 
4.59995 21.522 10.1478 
7.1532 21.7163 10.0751 
5.92335 23.0139 11.5108 
8.49698 22.8653 8.60537 
11.396 22.7979 8.56279 
9.9838 24.3304 10.0805 
9.97683 21.5341 10.1292 
8.50827 23.0547 11.5574 
11.4328 23.0077 11.4943 
15.0241 23.758 8.63009 
13.5451 22.184 8.72699 
15.6436 21.5755 10.059 
12.7749 21.5305 10.6099 
12.9233 24.3225 9.98784 
14.3402 22.9504 11.4565 
17.2118 23.1267 8.88001 
20.0624 22.9863 8.52495 
18.5818 21.5428 10.1231 
20.0505 22.8781 11.5866 
17.3628 23.0723 11.4926 
23.1059 23.005 8.69862 
24.2624 21.5284 10.11 
22.9829 22.9766 11.5821 
24.6025 24.1893 10.2927 
21.5482 24.3061 10.0649 
21.6218 21.5095 10.3442 
28.6664 22.9382 8.65795 
25.8907 23.1789 8.55179 
27.1378 21.5907 9.95644 
25.856 22.8119 11.4868 
27.4525 24.2555 9.96244 
2.98038 25.6554 8.53964 
0.115248 25.7935 8.56837 
2.88026 28.5544 11.4373 
0.21555 28.6894 11.5165 
2.76357 25.7883 11.4913 
1.41858 27.2023 10.0556 
5.4653 28.5081 8.63965 
5.89632 25.7125 8.62514 
5.60596 28.6881 11.4096 
5.6882 25.958 11.7549 
4.39923 26.9252 10.0212 
7.22598 24.6112 10.187 
7.12255 27.3164 10.2498 
8.44079 28.6856 8.65511 
8.62292 25.9979 8.69085 
11.4767 25.845 8.60252 
10.0583 27.3376 10.0326 
8.65585 25.9024 11.7238 
11.4093 25.8867 11.5114 
14.2414 25.8731 8.45157 
12.8688 27.2971 9.96955 
15.8039 27.4442 10.0275 
14.1248 25.8429 11.4595 
15.9248 24.6643 10.465 
17.2346 25.8618 8.4742 
20.1519 25.9727 8.64588 
20.1968 28.6685 11.3357 
20.0199 25.8827 11.3527 
18.6167 27.5356 9.93225 
17.3977 25.9795 11.5845 
18.6641 24.6833 10.1511 
23.079 25.6964 8.8623 
24.5023 27.1764 10.0406 
23.0315 25.9721 11.4909 
21.5781 27.3756 9.90212 
22.8398 28.6431 11.3775 
28.6768 28.5162 8.57871 
25.9612 25.9137 8.66617 
26.0996 25.8084 11.428 
27.2428 27.315 10.0033 
28.6078 25.7167 11.3529 
1.55407 1.59676 12.9098 
0.0045312 2.93994 14.2245 
1.54355 1.45218 15.698 
2.73334 2.88347 14.4681 
4.14099 1.1455 12.9485 
6.97341 1.18076 12.9181 
5.67086 2.80261 14.3409 
4.24153 1.38402 15.8449 
7.25248 1.46842 15.9104 
5.69896 0.143342 14.5947 
9.94138 1.37704 12.9277 
8.41587 3.09609 14.0686 
11.4816 2.9786 14.2776 
9.90183 1.64978 15.7419 
8.57363 0.150812 14.4348 
9.83653 4.06551 15.9017 
14.4381 2.88437 14.3407 
12.8182 1.59866 12.9139 
15.7102 1.47482 12.8288 
12.7844 1.39771 15.7833 
15.6577 1.34329 15.6664 
18.7651 1.54375 12.8355 
17.1477 2.6212 14.3395 
20.1736 0.0930575 14.2368 
18.8439 1.23563 15.7874 
19.9966 2.76431 14.3637 
21.6606 1.37961 12.7325 
24.4638 1.43978 12.7818 
23.0143 0.114421 14.2371 
22.9844 2.76922 14.2611 
21.5568 1.44139 15.7043 
24.3717 1.40231 15.9218 
27.6191 1.57863 12.7257 
25.8462 2.74269 14.2049 
28.6914 0.0144075 14.1828 
27.2998 1.35848 15.5953 
1.45934 4.44301 12.8158 
1.3791 7.03008 12.87 
0.0186048 5.82163 14.2974 
2.84755 5.82189 14.2194 
1.56862 4.39815 15.6565 
1.38609 7.03441 15.8293 
6.98434 4.39176 12.9057 
4.41162 4.38993 12.8587 
4.36168 7.19522 12.9509 
7.16098 7.18261 12.9716 
5.66161 5.76662 14.3499 
4.30952 7.27522 15.8368 
4.31875 4.17404 15.9934 
7.02936 4.18683 15.9051 
7.15666 7.10734 15.799 
10.0569 4.34209 12.8947 
10.1606 7.23455 12.9471 
11.4719 5.72336 14.3195 
10.1856 7.22543 15.8743 
8.63524 5.90938 14.6141 
12.9403 4.29441 12.8598 
15.7879 4.21888 12.7847 
12.9799 7.15041 12.9355 
16.0214 7.26473 12.8288 
14.4685 5.88126 14.2226 
12.8826 4.32996 15.5043 
15.6248 4.29359 15.6609 
12.9644 7.16779 15.738 
15.9151 7.05122 15.7356 
18.6055 4.4494 12.9707 
18.7697 7.28988 13.0188 
17.1764 5.68594 14.3266 
20.1458 5.62448 14.3408 
18.6753 4.10401 15.7126 
18.6625 7.28153 15.9324 
23.0592 5.66762 14.2988 
24.563 4.60536 12.909 
21.5989 4.24244 12.9977 
21.4659 7.14841 13.0226 
24.4329 7.11431 12.9217 
21.6157 4.25096 15.7443 
24.5639 4.24455 15.5408 
21.4895 7.23171 15.8265 
24.4702 7.07114 15.7346 
27.1739 4.42384 12.8468 
27.3644 7.26823 12.8429 
26.0626 5.87817 14.2376 
27.2955 4.15313 15.8944 
27.263 7.09457 15.895 
1.49717 10.1526 12.8131 
0.0271115 11.4783 14.2803 
2.80474 11.5253 14.2931 
2.97065 8.4667 14.2125 
1.51728 10.1129 15.7504 
0.0853019 8.63832 14.4227 
4.20325 10.1076 12.8195 
7.15343 9.97076 12.9934 
5.77509 8.79561 14.3337 
5.62158 11.5815 14.3422 
4.1969 9.94818 15.708 
7.04496 10.0732 15.7188 
10.1526 10.0566 12.8395 
11.4856 11.3349 14.2902 
8.65519 11.5091 14.2166 
8.67742 8.57854 14.3084 
9.98509 10.0925 16.0342 
11.2953 8.71552 14.4352 
13.0487 9.97581 12.9619 
15.746 10.2106 12.8344 
14.3658 8.46455 14.3072 
12.9923 9.98102 15.6923 
15.6553 10.0765 15.6741 
14.2706 11.6222 14.3593 
18.6831 10.1801 13.0898 
17.2571 8.58837 14.2657 
18.4931 9.9841 15.7155 
20.088 11.4396 14.4761 
20.0867 8.61216 14.3983 
17.3072 11.6825 14.3702 
22.9403 11.4762 14.1121 
21.459 10.072 12.9217 
24.4883 10.0186 13.0867 
21.7206 9.96636 15.6811 
22.9906 8.54336 14.4208 
25.859 8.55563 14.2969 
27.3088 9.88727 12.898 
24.6163 10.0996 15.7032 
27.3255 10.0385 15.6462 
25.785 11.6889 14.3903 
1.4712 12.8861 12.8814 
1.43697 16.0523 12.8144 
0.0915645 14.2751 14.2555 
1.32213 12.8834 15.889 
1.34748 15.878 15.8718 
2.83668 14.5581 14.3803 
4.38063 12.8813 12.9139 
4.28399 15.7413 13.1071 
7.26699 12.9567 12.8604 
7.30543 15.8086 12.7748 
4.36471 15.8772 15.7651 
4.21779 12.8492 15.6827 
7.10148 12.8761 15.6617 
7.21908 15.8851 15.6836 
5.72851 14.5 14.3821 
10.1242 12.8946 12.6704 
10.1103 15.9523 12.9173 
11.4515 14.2622 14.2509 
8.71626 14.3445 14.3469 
10.0486 12.8577 15.6847 
10.1049 15.8084 15.9737 
12.8204 12.8802 12.7901 
15.8272 12.9322 12.9268 
12.8359 15.6688 12.8978 
15.6063 15.871 12.8815 
12.8678 12.9263 15.7152 
15.7264 12.9304 15.9858 
12.8403 15.8278 15.8749 
15.7687 15.7923 15.7593 
14.302 14.3857 14.3913 
19.9918 14.2922 14.292 
18.5563 12.9154 12.9388 
18.4386 15.8278 12.879 
18.684 12.8675 15.842 
18.5142 15.6905 15.5872 
17.1109 14.3045 14.4052 
21.5211 12.8539 12.8494 
21.271 15.8513 12.7135 
24.4118 12.7854 12.8517 
24.4421 15.8151 12.6633 
21.5164 12.7523 15.5511 
21.5453 15.7699 15.7333 
24.3142 16.0002 15.7009 
24.3084 12.8034 15.5911 
22.8678 14.3881 14.3757 
27.2553 12.8099 12.7458 
27.2105 15.7236 12.9754 
25.8165 14.2254 14.3225 
27.2523 13.0085 15.8455 
27.2268 15.7789 15.8921 
2.73516 17.3093 14.3238 
1.49761 18.7231 12.7476 
2.89197 20.0758 14.2238 
0.144703 20.1632 14.3565 
1.30326 18.6569 15.7517 
4.39318 18.759 12.8799 
7.31804 18.6307 12.9115 
5.79704 17.2758 14.3661 
4.28357 18.6165 15.5952 
7.17342 18.6719 15.7411 
5.73051 20.1025 14.4296 
9.89736 18.7627 13.0557 
8.7212 17.0472 14.2969 
11.3771 17.229 14.4299 
9.92152 18.7274 15.9372 
8.65718 20.1384 14.3999 
11.5456 20.0079 14.4812 
12.8633 18.5557 12.8919 
15.4903 18.6775 12.9907 
14.347 17.169 14.473 
12.8467 18.5761 15.8073 
15.7191 18.685 15.8487 
14.3306 20.0639 14.4317 
18.4873 18.6478 12.817 
17.0188 20.0459 14.2664 
18.7458 18.4076 15.8975 
17.0825 17.3818 14.3888 
19.9584 17.185 14.417 
19.8451 19.9357 14.5313 
21.4104 18.584 12.9718 
24.3579 18.6414 12.9778 
22.9301 17.3335 14.2736 
22.9135 19.9688 14.2835 
21.5164 18.555 15.8299 
24.4589 18.6703 15.7733 
27.25 18.85 12.9385 
27.2084 18.7874 15.8615 
28.6434 17.1433 14.3811 
25.9751 17.1128 14.382 
25.7353 20.0561 14.3616 
1.48272 21.4375 12.8917 
1.40868 24.2421 12.9991 
2.74494 22.8271 14.3393 
1.58936 21.3536 15.727 
1.36411 24.4674 15.7356 
3.9648 24.4483 15.7292 
0.103014 22.9314 14.6014 
4.25093 24.5101 13.0847 
7.19136 24.598 13.0895 
4.44532 21.5174 12.8034 
7.21978 21.4301 12.9471 
4.35565 21.5779 15.756 
6.98674 21.5566 15.8704 
7.39393 24.4147 15.972 
5.72022 23.0757 14.4492 
9.83492 24.4557 13.0554 
9.96098 21.5096 12.9485 
8.41789 22.8458 14.3599 
9.8772 21.6044 15.8568 
9.96513 24.3175 15.9025 
11.3841 22.8038 14.3877 
12.8511 21.2605 13.0472 
15.6257 21.5198 13.1261 
15.7971 24.3787 12.7545 
12.9441 24.4302 12.9561 
14.2445 22.8892 14.3199 
12.9157 21.5919 15.9091 
15.8796 21.7331 15.718 
12.6342 24.4788 15.9415 
15.7902 24.3771 15.616 
18.7412 24.3304 12.9444 
18.6747 21.4049 12.9778 
17.129 23.1073 14.326 
20.0605 22.8502 14.2801 
18.5504 21.4226 15.6136 
18.6261 24.4577 15.6868 
21.5238 21.5065 13.0589 
24.2752 21.4523 13.0725 
21.5137 24.5739 12.8673 
24.4593 24.4209 12.977 
22.8601 22.9759 14.3439 
21.6599 21.4181 15.7565 
24.2985 21.4788 15.7078 
24.5217 24.3426 15.7524 
21.4103 24.2854 15.7104 
27.2498 24.3231 12.8398 
27.3288 21.4963 12.9753 
27.2119 21.4217 15.7254 
27.1828 24.2123 15.7696 
26.0076 23.0235 14.3739 
1.39195 27.2604 13.0134 
2.76489 25.9028 14.2833 
1.25848 27.1137 15.7954 
2.81743 28.5236 14.5923 
7.04872 27.3253 13.0013 
4.21921 27.2931 13.0156 
4.43038 27.2106 15.7259 
7.05111 27.2381 15.8159 
5.78438 25.834 14.4662 
11.4259 28.6965 14.2996 
9.7649 27.4509 12.8385 
11.4404 25.7573 14.339 
10.0522 27.3875 15.8532 
8.5596 25.9268 14.3617 
14.108 25.775 14.232 
12.7735 27.3469 12.8593 
15.7362 27.0736 12.8165 
14.2639 28.4725 14.2409 
12.8963 27.1183 15.7944 
15.8119 27.0201 15.5633 
17.2277 25.8481 14.1319 
18.5493 27.3544 12.89 
17.229 28.6677 14.2945 
18.613 27.2521 15.5912 
20.1268 25.9082 14.4055 
21.4785 27.2298 12.7651 
24.353 27.2076 12.8815 
22.9838 25.9237 14.3285 
21.6078 27.4794 15.604 
24.3344 27.275 15.6255 
27.2834 27.3898 12.8635 
28.6321 25.8149 14.2281 
25.819 25.9533 14.2629 
27.3024 27.0925 15.7753 
25.7876 28.5549 14.4935 
1.62437 1.27079 18.7543 
2.87162 2.75213 17.1966 
0.133217 2.75378 17.3309 
2.93295 2.79528 20.0433 
0.0772887 2.76777 20.0814 
4.40367 1.33844 18.6375 
7.18237 1.57859 18.6573 
5.55902 2.88369 17.3101 
5.65404 2.80729 20.1241 
5.80854 0.0033892 20.0558 
10.1127 1.55892 18.6631 
8.52251 2.75397 17.2748 
11.5362 2.72339 17.2643 
11.3954 0.110017 17.203 
8.73581 3.05277 20.0127 
11.6797 3.01525 20.0417 
11.7263 0.0954963 20.0036 
13.1194 1.51827 18.5058 
15.8786 1.41052 18.5687 
14.2752 2.90623 17.228 
14.3541 0.0228686 17.1203 
14.3279 3.03371 20.0705 
14.419 0.116561 20.0398 
18.5828 1.38892 18.6396 
17.2109 2.77733 17.0313 
20.1279 2.77991 17.2847 
17.0199 2.89046 19.9152 
20.0147 2.95619 19.8876 
21.6762 1.43217 18.5613 
23.1187 3.00766 17.1635 
24.4989 1.3191 18.4276 
22.9149 0.0607194 17.1697 
23.0267 2.88255 19.9643 
27.3513 1.36685 18.7169 
26.0378 2.75546 17.1895 
25.6435 2.69734 20.1896 
1.64597 4.26191 18.608 
1.35657 7.29098 18.6848 
3.01812 5.73042 17.1437 
0.0417827 5.54723 17.3338 
2.82481 5.90289 20.0692 
4.34925 4.29223 18.9462 
4.39029 7.2897 18.4703 