ITEM: TIMESTEP
66000
ITEM: NUMBER OF ATOMS
2001
ITEM: BOX BOUNDS pp pp pp
0.0000000000000000e+00 2.8712000000000000e+01
0.0000000000000000e+00 2.8712000000000000e+01
0.0000000000000000e+00 2.8712000000000000e+01
ITEM: ATOMS x y z 
1.46143 1.41597 1.42198 
2.73469 2.9655 2.6402 
0.0945204 2.91374 2.8645 
2.97275 0.0356563 0.0454266 
4.18375 1.40731 1.55844 
7.2471 1.47245 1.52281 
5.98536 3.03919 2.9125 
5.76889 2.88048 0.0839727 
10.1008 1.33919 1.41611 
8.61966 3.0009 2.89861 
11.4792 2.98739 2.72516 
11.5375 0.0539082 2.88385 
8.76706 2.71878 0.0227129 
8.58204 0.105767 3.03228 
13.0257 1.37221 1.39772 
15.951 1.54427 1.41092 
14.4716 2.74827 2.86523 
18.7652 1.29441 1.39735 
17.4016 2.71855 2.79316 
20.0453 3.00116 2.85945 
22.8186 2.90788 2.98555 
24.3237 1.6037 1.51854 
21.3367 1.5645 1.47781 
22.9813 0.0729607 0.140559 
27.2251 1.56253 1.54904 
25.8292 2.97911 2.88057 
25.841 0.349101 0.137501 
28.6441 0.0540002 0.203508 
1.40277 4.30608 1.32352 
1.4314 7.24501 1.19246 
2.85372 5.74067 2.85787 
0.073732 5.79247 2.67888 
4.29157 4.24 1.4761 
7.41347 4.19874 1.29252 
4.36705 7.18753 1.22387 
7.20793 7.12672 1.36726 
5.94026 5.5987 2.91825 
5.85661 5.68652 0.123529 
10.1462 4.3944 1.35794 
10.0231 7.0736 1.54571 
8.60292 5.67279 2.82573 
11.509 5.71594 2.89586 
11.5841 5.93119 0.0185956 
12.956 4.33934 1.34669 
15.7915 4.20055 1.41976 
13.0103 7.11487 1.38023 
15.7579 7.08845 1.55261 
14.3021 5.65676 2.95032 
18.581 4.28645 1.20301 
18.5484 7.15922 1.30758 
17.258 5.49025 2.92288 
19.8844 5.68551 3.0433 
17.0297 5.65505 0.0268285 
24.3019 4.32182 1.43513 
21.3565 4.27893 1.22656 
21.5353 7.12966 1.38272 
22.8705 5.68311 2.71021 
24.399 7.07345 1.30869 
27.1826 4.11272 1.38593 
27.3384 7.38575 1.42074 
26.0005 5.75706 2.75405 
1.50648 10.2077 1.11282 
1.55466 9.92257 4.09243 
2.88065 8.66585 2.58657 
2.93698 11.4206 2.77397 
0.0834402 11.4714 2.76729 
0.035328 8.81566 2.6748 
4.44919 10.1206 1.35189 
7.34481 10.126 1.4606 
5.6573 8.51616 2.78835 
5.57936 11.4198 2.94777 
6.03265 8.70649 0.0518607 
10.0903 10.1906 1.35337 
8.53024 8.67546 2.69433 
11.3589 8.62515 2.62962 
8.6808 11.4848 2.84747 
11.3419 11.4951 2.87971 
11.2977 8.70939 0.0708684 
11.5174 11.6141 0.0644476 
12.8981 10.0165 1.45105 
15.7655 10.0201 1.45035 
14.3117 8.5441 2.90181 
14.2672 11.5523 2.96278 
14.4104 11.4445 0.0445631 
18.5536 10.0079 1.30343 
17.1972 8.33203 2.85003 
20.1474 8.55163 2.80189 
17.1134 11.4044 2.87066 
20.0542 11.348 2.87346 
17.1047 11.5719 0.104288 
17.063 8.43959 0.0984601 
20.0978 8.61425 0.112904 
21.5616 10.0477 1.42275 
22.8518 8.48015 2.88951 
22.9627 11.3131 2.81718 
24.4296 10.0491 1.40976 
23.0054 8.5505 0.0721427 
27.276 9.99576 1.30752 
25.7932 8.47708 2.93853 
25.7537 11.3642 2.95841 
28.6858 11.4776 0.013116 
1.38782 13.0612 1.43314 
1.53682 15.8883 1.34125 
3.01592 14.4152 2.89748 
0.20082 14.4284 3.02791 
0.0648108 14.4617 0.0741189 
4.44871 15.7448 1.28827 
4.25812 12.9234 1.40456 
7.11361 12.8026 1.44606 
7.17823 15.7438 1.39761 
5.78042 14.4342 2.92288 
10.0433 12.947 1.32187 
10.0726 15.7097 1.40383 
8.64484 14.3263 3.01085 
11.3405 14.4428 2.82075 
8.63702 14.3242 0.0938066 
12.9723 12.9029 1.48043 
15.7872 13.0177 1.37502 
13.004 15.6622 1.55586 
15.9767 15.7953 1.37109 
14.6264 14.4182 2.92992 
14.3743 14.3342 0.124902 
20.1574 14.0676 0.00345193 
18.815 12.8269 1.58443 
18.9625 15.7616 1.54169 
17.2634 14.3404 2.98694 
20.1477 14.2907 2.81836 
17.549 14.5044 0.216863 
21.5787 12.7724 1.5763 
21.5598 15.7373 1.43903 
22.9021 14.4517 2.93527 
24.3398 15.9418 1.45761 
24.3429 12.9884 1.55278 
23.0328 14.0942 0.0559279 
27.244 13.009 1.38697 
27.4924 15.7857 1.68161 
25.7932 14.3405 2.95183 
25.8794 14.4188 0.107023 
1.50948 18.8034 1.41107 
3.01323 17.2943 2.74884 
2.78967 20.1887 2.74184 
0.0051221 20.0734 2.81839 
0.132197 17.3204 2.76946 
4.49641 18.6328 1.32362 
7.05383 18.5346 1.43252 
5.84401 17.1694 2.83096 
5.67491 20.0822 2.8609 
11.6246 20.0309 0.0503338 
8.7014 19.9831 0.0251801 
10.2465 18.6783 1.14292 
8.58933 17.2234 2.82713 
11.4427 17.1432 2.75572 
8.76213 20.0858 2.65745 
11.5192 20.0656 2.78682 
11.647 17.1106 0.00947296 
13.1191 18.5589 1.36447 
15.8512 18.4321 1.32836 
14.5494 17.077 2.86512 
14.4449 20.1241 2.74849 
14.4065 17.1647 0.00672536 
18.7504 18.4061 1.28913 
17.2269 17.2258 3.01638 
20.3465 17.4838 2.81939 
17.3204 19.8222 2.82663 
20.2176 20.2479 2.78678 
20.1376 17.1925 0.00133491 
17.2382 20.0565 0.136046 
21.6188 18.7039 1.27324 
24.4746 18.686 1.5706 
22.9886 16.9988 2.90097 
23.0845 20.3005 2.81249 
27.3589 18.6098 1.58688 
25.9899 17.2038 2.8285 
25.9307 20.2604 2.91408 
28.6279 17.415 0.0354228 
25.9364 17.0461 0.130652 
1.56412 21.8091 1.40219 
2.90627 23.0652 2.75434 
1.43486 24.4745 1.29523 
4.3079 24.473 1.29521 
4.36733 21.5395 1.4973 
7.23732 21.6676 1.33408 
5.65062 22.9126 2.77489 
7.20798 24.1857 1.4621 
10.2743 21.5711 1.33971 
8.65921 22.861 2.86318 
11.5666 23.0172 2.8781 
10.0299 24.3613 1.36877 
8.72808 22.9352 0.0363921 
12.9411 21.5386 1.48015 
15.7873 21.4272 1.42784 
14.4315 22.9814 3.0226 
15.8399 24.5316 1.54771 
13.006 24.3602 1.46467 
14.4782 22.8785 0.141563 
18.6817 21.3336 1.3484 
17.3311 22.9125 2.93126 
20.079 22.8937 2.82343 
18.6666 24.1627 1.27123 
17.1735 22.9482 0.100966 
21.593 21.3487 1.18683 
24.4342 21.6322 1.53318 
23.0586 23.1204 2.71145 
24.3421 24.4675 1.34857 
21.4543 24.0558 1.29809 
28.6879 22.8877 2.71632 
27.2595 21.6942 1.46893 
25.7672 22.9752 2.9065 
27.4836 24.3811 1.28385 
25.7388 22.9501 0.0432854 
2.77806 28.7089 2.96716 
0.174697 28.6982 2.80933 
1.43878 27.1667 1.31308 
2.87258 25.8755 2.82038 
0.0776951 25.844 2.71409 
5.76989 28.6924 2.81473 
4.26971 27.2254 1.37621 
7.33323 27.3109 1.60871 
5.94933 25.8154 2.9956 
5.99679 25.8 0.0836614 
5.84422 28.6858 0.276681 
10.0674 27.4172 1.52107 
8.67163 25.7523 2.85305 
11.5745 25.8826 2.68824 
8.51841 25.9071 0.095003 
11.585 25.745 0.104623 
14.3995 28.6179 2.89941 
13.0607 27.3977 1.45533 
15.9473 27.3418 1.59666 
14.23 25.8977 2.85875 
20.0541 28.4809 2.81268 
17.3265 28.6898 2.8988 
18.6543 27.1645 1.40741 
17.2337 25.7326 2.87446 
20.014 25.8095 2.82352 
20.1687 25.8459 0.066238 
23.0073 28.6443 2.95553 
21.6758 27.1927 1.45701 
22.8869 25.6178 2.82633 
24.4484 27.0341 1.44 
25.7852 28.433 2.84595 
27.2329 27.1018 1.2963 
26.0794 25.7402 2.81354 
1.43597 1.57082 4.26124 
1.43943 1.41484 7.07795 
2.90095 2.81405 5.58775 
0.0563444 2.88512 5.591 
4.25646 1.54747 4.14968 
6.9969 1.37416 4.16981 
4.147 1.52 7.22269 
7.12549 1.52877 6.9602 
5.73473 2.91286 5.92429 
5.83836 0.126955 5.86548 
10.1703 1.59266 4.24988 
10.0349 1.65008 7.12926 
8.63267 2.83431 5.60722 
11.5782 2.89111 5.83519 
8.67363 0.0871582 5.67553 
11.3828 0.0987194 5.75782 
12.8673 1.5694 4.40571 
15.9784 1.42006 4.12312 
12.7965 1.30092 7.09886 
15.7762 1.50267 7.29323 
14.2483 2.85739 5.77479 
14.4505 0.110024 5.50097 
18.8744 1.41871 4.32839 
18.6267 1.43034 7.15281 
17.2364 2.80009 5.82003 
20.2917 2.85875 5.7311 
17.3477 0.0873369 5.80247 
18.7532 4.09732 7.17741 
21.5628 1.48331 4.183 
24.2936 1.33144 4.16356 
21.6588 1.39737 7.16611 
24.4332 1.44711 6.96369 
22.892 2.86467 5.39997 
27.3227 1.54774 4.19326 
28.6525 0.0208222 5.61558 
27.2697 1.59575 7.15146 
25.9513 2.84029 5.53504 
25.9783 0.0726964 5.52976 
1.46548 4.38967 4.20174 
1.44924 7.1697 4.15482 
1.34048 4.27292 7.18444 
1.4704 7.30419 7.20749 
2.87443 5.65737 5.63532 
0.120557 5.75585 5.65061 
4.04252 4.30627 7.13369 
4.37907 7.07334 4.10438 
7.31826 4.354 4.61632 
4.2879 4.22218 4.33629 
7.29501 7.13133 4.23366 
7.26721 4.25264 7.12404 
4.3188 7.22312 7.08859 
5.71738 5.68103 5.71882 
7.00171 7.2328 7.08294 
10.2356 4.42903 4.48077 
10.1765 7.30867 4.23186 
9.88859 4.19076 7.03639 
8.67924 5.89645 5.68197 
10.2174 7.24776 7.16688 
11.4559 5.90801 5.65855 
12.8449 4.3165 4.21564 
15.7143 4.17937 4.23017 
12.9522 7.29694 4.32332 
15.8616 7.1964 4.3305 
13.027 4.2665 7.1611 
15.5049 4.19647 7.1149 
13.0173 7.14786 7.2952 
14.4033 5.62956 5.7478 
15.7128 7.09068 7.29748 
18.5222 4.11768 4.3841 
18.5373 7.11138 4.41434 
17.1452 5.75806 5.81907 
18.5708 7.07785 7.28562 
19.9855 5.79193 5.78808 
21.4853 4.58346 4.24722 
21.5116 7.08803 4.33392 
24.2935 7.197 4.42341 
24.3972 4.31582 4.38901 
21.467 4.40654 7.08249 
24.3098 4.35554 7.20987 
21.3743 7.13901 7.18715 
22.9282 5.63152 5.80793 
24.3187 7.06082 7.18159 
27.2889 4.40013 4.30678 
27.411 7.28222 4.32706 
27.2743 4.34185 7.13062 
25.9171 5.99736 5.67095 
27.4692 7.18145 7.12007 
1.53929 10.2817 7.26067 
2.83026 8.45849 5.7562 
2.87985 11.5442 5.60643 
0.160241 8.75001 5.54996 
4.04643 10.0785 7.13867 
0.212209 11.4211 5.5805 
4.24366 9.88703 4.20546 
6.97384 10.1563 4.4212 
5.56146 8.49187 5.46991 
7.13756 10.0763 7.08836 
5.49624 11.4319 5.71618 
10.0314 10.1218 4.2341 
8.57407 8.7165 5.63271 
10.1242 10.0844 7.26375 
11.5204 8.80165 5.71318 
8.58539 11.5089 5.77526 
11.5918 11.4878 5.79862 
12.8305 10.2304 4.25466 
15.5928 9.94601 4.29303 
13.2398 9.89559 6.95657 
14.3798 8.27651 5.73466 
15.8356 9.91369 7.20356 
14.3091 11.4852 5.7034 
18.6009 9.90512 4.11321 
17.1472 8.5576 5.76332 
18.569 9.89955 7.30701 
20.0255 8.49789 5.63519 
17.0397 11.4598 5.7855 
20.0085 11.4597 5.75588 
21.582 9.99121 4.38268 
24.2925 10.0614 4.29389 
21.4493 9.90038 7.14422 
22.921 8.64483 5.84773 
22.9767 11.5741 5.73549 
24.3652 9.81174 7.0786 
27.398 10.1153 4.26218 
25.853 8.57078 5.71379 
27.5185 10.0173 7.01878 
25.8792 11.36 5.75976 
1.61233 12.9468 4.25182 
1.52084 15.7688 4.24439 
1.43798 12.8383 7.13492 
1.4549 15.7537 7.24135 
3.05534 14.3191 5.7546 
0.189006 14.3832 5.70844 
4.42959 12.9992 4.28394 
4.29304 15.781 4.28697 
7.11813 12.7229 4.2843 
7.26781 15.82 4.38271 
4.25477 12.9998 7.31769 
4.33486 15.6989 7.16505 
7.14766 12.6543 7.2702 
5.87298 14.2699 5.86019 
7.06725 15.6576 7.30773 
10.0279 12.9026 4.35999 
9.86847 15.7456 4.33291 
10.1373 12.6351 7.26291 
8.62493 14.1724 5.97727 
10.0409 15.8697 7.26857 
11.3866 14.4021 5.88342 
12.827 13.1752 4.26419 
15.7956 12.9218 4.29745 
12.9773 15.9238 4.30477 
15.8029 15.7527 4.45808 
12.9766 12.9843 7.20572 
15.7881 12.733 7.19729 
13.0469 15.8079 7.21061 
14.5858 14.2316 5.78532 
15.7382 15.8799 7.10469 
18.7602 12.9506 4.4749 
18.7755 15.7264 4.27198 
18.7585 12.8769 7.31228 
17.2032 14.1828 5.80543 
18.6143 15.6697 7.32 
20.1163 14.4851 5.78557 
21.5259 12.9263 4.43289 
21.4822 15.8306 4.22322 
24.3318 12.9965 4.14656 
24.2747 15.8037 4.43054 
21.439 12.9294 7.14046 
21.5028 15.895 7.16751 
22.7519 14.3461 5.67745 
24.4443 15.8727 6.86084 
24.2366 13.1262 7.1561 
27.2223 12.7869 4.19669 
27.4087 15.7767 4.22833 
27.1878 12.9454 7.10134 
25.9406 14.5554 5.71406 
27.2913 15.8871 7.09156 
1.54014 18.6796 4.15544 
1.48511 18.4508 7.23935 
2.78091 17.2074 5.51943 
2.89049 19.9755 5.71473 
0.0905798 20.0956 5.7504 
0.0881849 17.2737 5.71184 
4.30682 18.7316 4.18237 
7.12432 18.6579 4.20405 
4.21387 18.4858 7.07404 
5.7768 17.2092 5.77043 
7.31215 18.6119 7.15234 
5.76952 20.0622 5.66471 
10.0668 18.6254 4.27986 
8.55765 17.2203 5.76075 
10.036 18.6699 7.10522 
11.517 17.2066 5.86317 
8.61622 19.9194 5.50644 
11.42 19.9944 5.69029 
12.9986 18.6085 4.13917 
15.6751 18.6827 4.32859 
12.9856 18.5802 7.24802 
14.5066 17.1754 5.68891 
15.6729 18.6901 7.11799 
14.2019 20.0845 5.6587 
18.6407 18.6592 4.25384 
17.4225 17.1943 5.86564 
18.6557 18.8956 7.18955 
20.079 17.4215 5.73789 
17.021 19.9836 5.76876 
20.1251 20.1359 5.85492 
21.5345 19.045 4.13585 
24.3425 18.7028 4.20456 
21.417 18.7562 7.37327 
22.7331 17.4102 5.68547 
22.8457 20.1222 5.93682 
24.3068 18.6783 7.14823 
27.1808 18.7012 4.43146 
25.7813 17.3829 5.47005 
27.4825 18.6589 7.1906 
25.7416 20.0123 5.77896 
1.41567 21.5057 4.28128 
1.42839 24.2817 4.16184 
1.61192 21.4294 7.27283 
2.78601 22.9447 5.60962 
1.58982 24.2272 7.20514 
0.187606 22.8483 5.8432 
4.33294 21.5533 4.31006 
4.26684 24.3445 4.31609 
7.20428 21.3985 4.31173 
7.22193 24.3361 4.2526 
4.39865 21.5278 7.08968 
7.24987 21.4263 7.18162 
5.84724 22.9754 5.68747 
7.2407 24.3967 6.99868 
4.43865 24.4101 7.01339 
10.2069 21.3541 4.1538 
10.2041 24.5262 4.22521 
9.96237 21.4835 6.94698 
8.78474 22.809 5.46516 
11.4774 22.9124 5.63707 
10.1018 24.2622 6.83445 
12.9487 21.6221 4.28936 
15.7263 21.5886 4.17013 
12.9312 24.261 4.41825 
16.0092 24.3849 4.33691 
12.6744 21.5117 7.18357 
16.0099 21.3953 7.2779 
14.2824 22.8668 5.84089 
12.8119 24.5017 7.18395 
15.3012 24.5315 6.87292 
18.8096 21.3213 4.32226 
18.6576 24.2724 4.21754 
17.037 23.4585 7.98806 
18.716 21.443 7.186 
17.3439 22.9565 5.59725 
20.0907 22.8452 5.71654 
18.8691 24.5053 7.02612 
21.5661 21.6228 4.29775 
24.3372 21.6629 4.23917 
21.4309 24.3854 4.30968 
24.5426 24.4526 4.3035 
21.612 21.6743 7.23965 
22.985 23.1878 5.78011 
24.4556 24.4042 7.24584 
24.4322 21.5361 7.15555 
21.6713 24.2735 7.25697 
27.389 21.5355 4.3584 
27.3885 24.3548 4.22751 
27.3453 21.4979 7.10316 
25.87 22.9266 5.73665 
27.4826 24.3512 6.99638 
1.33521 27.3229 4.56105 
2.87793 28.589 5.6775 
1.56773 27.314 7.22699 
3.1097 25.9407 5.67691 
0.249782 25.7717 5.84023 
4.36311 27.389 4.22919 
7.16768 27.2926 4.3303 
4.34834 27.2949 7.23274 
5.78178 25.901 5.67321 
7.14462 27.5734 7.12114 
10.1162 27.4089 4.24845 
8.75227 25.9675 5.73045 
10.0457 27.3237 7.0523 
11.5034 25.8816 5.69 
12.8907 27.3399 4.49671 
15.728 27.1846 4.26799 
12.9326 27.2053 7.18839 
14.2329 25.8281 5.57299 
15.7515 27.4946 7.16001 
18.6786 27.1995 4.41121 
20.2217 28.5065 5.73386 
17.3663 25.9238 5.66155 
18.6764 27.2594 7.18366 
20.1047 25.8376 5.63154 
21.4542 27.083 4.40077 
24.4313 27.1236 4.19364 
22.9821 28.6075 5.71868 
21.7369 27.2812 7.29155 
23.1043 25.7108 5.78524 
24.4738 27.1941 7.21589 
27.2882 27.1925 4.3736 
25.8646 25.7417 5.6656 
27.4265 27.2706 7.02179 
2.70518 3.05834 8.59162 
0.0877833 2.92875 8.67441 
0.0276879 0.0975392 8.48042 
1.43521 1.44333 9.94026 
2.79427 2.82768 11.4048 
0.0105952 2.93501 11.5201 
5.65052 2.84905 8.44817 
4.29427 1.44358 10.0204 
7.243 1.43307 10.1396 
5.74814 2.9352 11.3132 
8.55007 3.01743 8.73057 
11.4935 2.88006 8.8129 
8.63151 0.0940456 8.71629 
10.1785 1.3741 10.1274 
8.55231 2.97001 11.4842 
11.1784 2.96428 11.5618 
14.2147 2.95262 8.66733 
12.8652 1.41849 10.1391 
15.7888 1.43558 10.0125 
14.4328 2.92605 11.3389 
17.0835 2.88566 8.58106 
20.1396 2.78326 8.80553 
20.1466 0.237421 8.67603 
17.3004 0.231624 8.64056 
17.2571 0.0467162 11.3838 
18.7431 1.51731 10.1288 
17.2148 2.79959 11.4013 
20.1813 2.87924 11.5458 
22.9928 2.91751 8.5781 
23.0707 0.0684141 8.5651 
22.8751 0.0344236 11.4319 
21.6781 1.52333 9.98554 
23.0902 2.87774 11.5197 
24.4682 1.28519 10.1355 
25.7123 2.92096 8.61972 
25.9155 0.129831 8.29902 
27.251 1.38555 9.95252 
26.0131 3.00456 11.4739 
27.2743 4.09024 9.94172 
2.77321 5.7971 8.4725 
1.40399 4.4671 10.0839 
1.33962 7.10065 9.93563 
2.82131 5.80498 11.3946 
5.65459 5.58022 8.54455 
4.18049 4.31569 9.92569 
4.11965 7.1454 9.99003 
7.18858 4.6573 10.0134 
6.93324 7.06158 9.87499 
5.76399 5.61959 11.5317 
8.61073 5.88634 8.36082 
11.4939 5.81265 8.54696 
10.0677 4.38177 10.0492 
10.1985 7.09482 10.0385 
8.58299 5.89978 11.43 
11.454 5.76747 11.5746 
14.3548 5.73332 8.7559 
12.909 4.28029 10.1423 
15.7703 4.36934 10.099 
12.9374 7.17552 10.1308 
15.8604 7.09859 10.1847 
14.3048 5.74822 11.4908 
17.0578 5.65768 8.57677 
20.0153 5.68679 8.78191 
18.7357 4.18364 10.2462 
18.677 7.24543 10.1772 
17.3857 5.72187 11.5149 
20.1536 5.84243 11.6365 
22.8091 5.64795 8.67135 
21.4842 4.21912 10.1938 
21.3855 7.25989 10.2328 
22.9803 5.79047 11.3691 
24.2655 4.19401 10.1991 
24.332 7.22872 9.95909 
28.5647 5.78981 8.60167 
25.8536 5.78573 8.49827 
28.5492 5.75023 11.3838 
27.1653 7.21301 9.93141 
25.8888 5.72384 11.2592 
2.77904 8.66126 8.70874 
2.85746 11.681 8.61293 
0.0313187 8.56518 8.61927 
1.49033 10.1327 10.1745 
2.69545 8.3866 11.3781 
2.77768 11.4457 11.66 
4.03335 10.0864 10.0612 
0.0253373 8.58541 11.4182 
5.57646 8.69889 8.66792 
5.82611 11.4586 8.84215 
7.24209 10.1438 10.0217 
5.69789 8.41473 11.2838 
5.68301 11.4556 11.3049 
8.67966 8.57071 8.57517 
11.5653 8.54251 8.6176 
8.66361 11.4208 8.47808 
11.7257 11.2616 8.62765 
11.5793 8.67731 11.2928 
9.95509 9.92356 9.90081 
8.51967 8.48709 11.2268 
8.62007 11.4723 11.4668 
11.5358 11.5378 11.4287 
14.3531 8.5861 8.50841 
14.4204 11.3317 8.74082 
13.0555 9.97573 10.0143 
15.7936 9.9904 10.0336 
14.3459 8.59556 11.4143 
14.2739 11.5477 11.479 
17.284 8.52992 8.76521 
20.0304 8.37867 8.59309 
17.3395 11.5429 8.76551 
20.3161 11.5314 8.65422 
18.7125 10.1385 10.0705 
17.2355 8.63925 11.4556 
20.1977 8.66825 11.5505 
17.2246 11.3166 11.6562 
20.0865 11.379 11.4879 
22.8481 8.80414 8.72003 
22.905 11.6001 8.54575 
21.4407 10.0113 10.0685 
22.9913 8.6673 11.3369 
22.874 11.5248 11.4903 
24.4423 10.1368 9.92053 
28.6155 11.6973 8.57762 
26.0368 8.55965 8.4431 
25.7041 11.5518 8.69177 
28.5446 11.587 11.3949 
27.2819 10.1582 9.81692 
25.877 8.60684 11.2709 
25.8029 11.3677 11.4331 
2.86031 14.3799 8.62778 
1.40862 12.9867 10.2305 
1.47119 15.8407 10.1102 
2.76669 14.3705 11.5613 
5.74227 14.1241 8.64946 
4.1131 12.8832 10.1566 
4.29182 15.6288 10.0665 
7.25547 12.9678 10.0541 
7.14909 15.6903 10.1243 
5.62406 14.3273 11.4509 
8.55461 14.2054 8.50897 
11.4003 14.3786 8.39332 
10.0693 12.939 10.0812 
10.1355 15.7409 10.0661 
8.5898 14.531 11.55 
11.4542 14.4254 11.4302 
14.4187 14.5177 8.55779 
12.8564 13.0569 9.84791 
15.6128 12.9074 10.3126 
12.6785 15.8091 9.84988 
15.6514 15.8498 10.1238 
14.1413 14.4369 11.5619 
17.0339 14.3656 8.705 
19.9383 14.4469 8.9577 
18.5946 12.8608 10.317 
18.4024 15.9823 10.3283 
17.0907 14.321 11.6476 
20.1082 14.4121 11.5235 
22.6909 14.3521 8.53809 
21.495 12.8882 10.1343 
21.4295 15.8471 10.0395 
23.0073 14.3901 11.6001 
24.0309 15.7543 9.86469 
24.2653 13.0687 10.0627 
28.6329 14.3021 8.50903 
25.8903 14.2515 8.78534 
28.4759 14.5225 11.5467 
27.2926 13.037 10.1068 
27.1666 15.9835 10.0529 
25.8767 14.1352 11.5575 
2.93653 17.0558 8.75368 
3.05597 20.0377 8.66594 
0.0203463 20.146 8.66545 
0.0148426 17.0606 8.6495 
1.34107 18.5883 10.0265 
2.78033 17.3635 11.4946 
2.91151 19.9749 11.5505 
5.80406 17.1474 8.46133 
5.76423 20.0282 8.47327 
4.40315 18.5607 10.0412 
6.98931 18.5508 10.1473 
5.50338 17.2193 11.5314 
5.70513 20.2074 11.3985 
8.46256 17.211 8.62345 
11.4501 17.2157 8.66011 
8.54022 20.1289 8.40335 
11.3749 20.1808 8.70379 
9.90941 18.691 10.2769 
8.47765 17.1179 11.5512 
11.5351 17.2843 11.4515 
8.5264 20.0737 11.4707 
11.5071 20.1321 11.5569 
14.3397 17.2738 8.75654 
14.2223 20.0872 8.42134 
12.9066 18.6911 10.1889 
15.8933 18.7077 10.0083 
14.3327 17.2923 11.6081 
14.4244 19.9495 11.361 
17.121 17.172 8.5634 
20.0651 17.2326 8.68362 
17.1111 19.9622 8.64088 
20.1319 20.134 8.66124 
18.6077 18.5252 10.1482 
17.0694 17.1183 11.8087 
20.236 17.2113 11.5754 
17.2871 20.032 11.5929 
20.412 19.5001 11.8309 
22.9421 17.3301 8.53511 
22.8173 20.1646 8.86088 
21.3973 18.7894 10.0618 
22.8264 17.2839 11.3084 
22.8241 20.2451 11.6669 
24.2404 18.706 10.0338 
25.8084 17.2741 8.58894 
25.7899 20.0977 8.45593 
28.5848 20.1668 11.486 
28.6171 17.2216 11.4913 
27.1225 18.6971 10.1666 
25.4784 17.1767 11.3729 
25.7505 20.0171 11.5142 
2.96735 23.0272 8.60179 
1.5451 24.1927 10.0906 
1.60126 21.4824 9.82551 
2.95331 23.0056 11.5128 
0.0207541 22.9455 11.5826 
5.64668 23.0933 8.58853 
6.92426 24.4352 9.89182 
4.49875 24.3629 10.0396 
4.54228 21.5784 9.80123 
7.20334 21.4641 9.90334 
5.64991 23.0501 11.5117 
8.7504 22.9714 8.5795 
11.3852 23.0055 8.61985 
10.1487 24.4696 10.075 
10.0031 21.5224 10.0252 
8.58646 23.0295 11.2196 
11.6792 22.9959 11.4075 
14.2324 22.9789 8.51784 
12.9966 24.4895 10.1959 
15.8298 24.3101 10.0712 
14.3744 22.9909 11.496 
15.6955 21.6313 10.0561 
12.8618 21.5192 9.8455 
17.8959 22.1763 9.3895 
20.2513 22.7973 8.74683 
19.2869 21.0252 10.759 
20.0339 23.2534 11.5399 
17.3444 22.7391 11.6986 
18.6534 24.4887 9.94162 
23.135 22.941 8.85669 
21.6483 24.2423 10.1363 
21.6628 21.6265 10.3329 
24.5593 21.4491 10.1098 
23.0813 23.0757 11.5263 
28.5511 23.0213 8.72206 
25.883 23.0042 8.49378 
27.2316 21.6452 10.0199 
25.9525 23.0098 11.4724 
27.3682 24.5341 10.0977 
24.7136 24.4868 9.97504 
2.74691 28.5837 8.71098 
3.02704 25.7073 8.70416 
0.16428 25.8211 8.62007 
0.0519036 25.8819 11.4858 
2.81661 28.6725 11.4345 
2.84326 25.9907 11.4179 
1.59471 27.0625 10.002 
0.184703 28.3973 11.3605 
5.85664 28.6688 8.77249 
5.78458 25.8709 8.4223 
5.74959 28.6487 11.4776 
5.86631 25.9441 11.4365 
4.43429 27.2277 9.86002 
7.24096 27.1634 9.9837 
11.4453 28.6329 8.61066 
8.74847 25.729 8.57103 
11.4468 25.7977 8.78319 
8.58749 28.6297 11.5065 
9.97217 27.3924 10.0244 
8.81183 25.89 11.4509 
11.6225 25.8157 11.6593 
11.4009 28.5532 11.4951 
14.2619 28.5923 8.58485 
14.296 25.8724 8.59444 
12.9183 27.1915 9.98862 
15.8991 27.3774 9.90838 
14.4307 25.8397 11.3474 
14.3215 28.693 11.263 
17.2708 25.9302 8.47057 
20.0738 25.8186 8.69479 
20.1069 28.7011 11.2557 
20.1915 25.9265 11.4471 
18.5907 27.4072 9.97596 
17.1059 25.8844 11.2846 
23.0889 25.8027 8.44517 
24.2123 27.3542 9.89389 
23.0387 25.8092 11.4525 
21.7828 27.177 10.1099 
26.0957 25.8213 8.33509 
26.0724 25.9881 11.4156 
27.2438 27.3244 9.78548 
25.9442 28.673 11.2636 
0.0770773 0.0918174 14.2997 
1.4488 1.4263 12.8481 
0.0520092 2.93213 14.2705 
2.71628 2.83439 14.3407 
1.40335 1.45978 15.7893 
2.87531 0.0105345 14.4489 
4.17137 1.46791 12.9013 
7.22079 1.43318 12.8626 
5.72235 2.69531 14.3361 
4.37011 1.28576 15.8185 
7.00633 1.5349 15.8134 
11.4551 0.0896576 14.2559 
9.89804 1.57841 13.0022 
11.409 2.97191 14.0874 
10.1364 1.5077 15.7906 
8.46461 2.94604 14.4362 
8.67727 0.157114 14.4837 
12.89 1.56757 12.7424 
15.8947 1.41384 12.6429 
14.3959 2.82551 14.2309 
14.2395 0.0470314 14.2699 
12.9442 1.50039 15.8867 
15.8029 1.48758 15.6523 
18.6675 1.26074 12.9948 
17.2525 2.90666 14.2698 
18.5784 1.43699 15.5415 
20.183 2.88982 14.4633 
21.5313 1.4971 13.0107 
21.4877 1.54662 15.8156 
24.3271 1.49113 16.0458 
23.0801 2.71857 14.3618 
24.7987 1.52674 12.975 
27.3247 1.28118 12.8361 
27.4739 1.42064 15.8357 
26.0423 0.0040139 14.5838 
25.82 2.89826 14.6192 
1.39446 4.57346 12.9591 
1.31272 7.03568 12.8567 
1.3746 4.21867 15.7592 
1.36088 7.23619 15.7034 
2.84907 5.76184 14.3875 
7.17343 4.49136 12.9888 
4.25899 4.14709 13.0418 
4.16732 7.12515 13.0049 
7.1976 7.35675 12.8738 
5.57672 5.58195 14.312 
4.2958 7.04773 15.8453 
4.37102 4.24359 15.9996 
7.13708 4.35501 15.8668 
7.06065 7.04317 15.7297 
9.89306 4.59614 12.9251 
9.9564 7.29713 12.8647 
8.63452 5.87283 14.3021 
11.3274 5.89294 14.2268 
10.0281 4.32775 15.7951 
9.99933 7.32377 15.8432 
12.9392 4.37847 12.929 
15.8809 4.29656 12.8652 
12.9279 7.26511 12.9173 
15.7152 7.35701 12.8378 
14.3614 5.87002 14.2658 
13.0312 4.27371 15.727 
15.8931 4.52962 15.7786 
12.8418 7.22508 15.7199 
15.7431 7.14173 15.7689 
18.6759 4.25453 12.9816 
18.4975 7.35372 12.9885 
20.0073 5.85852 14.2953 
17.1493 5.78435 14.2576 
18.7882 4.26089 15.7948 
18.5594 7.28239 15.6913 
24.4816 4.4787 12.9029 
21.6832 4.27453 13.0395 
21.5422 7.2078 13.0262 
24.3166 7.27287 12.8888 
21.6147 4.35721 15.6745 
24.3418 4.29358 15.8914 
21.475 7.06145 15.6251 
24.4455 7.12641 15.8467 
23.0107 5.81543 14.3752 
27.3885 4.26249 12.9734 
27.1662 7.24072 12.7875 
27.3394 4.20093 15.8245 
27.292 7.06765 15.6931 
28.6856 5.84826 14.3832 
25.9489 5.68762 14.4656 
1.32119 10.0272 12.828 
2.9697 8.5766 14.2573 
1.49301 9.86933 15.7421 
2.76392 11.3925 14.4042 
4.32405 10.1442 12.7107 
7.09649 10.0263 13.0059 
5.59594 11.597 14.2908 
5.6946 8.66888 14.3556 
4.29409 10.0251 15.7658 
7.06002 10.0785 15.6937 
10.1153 9.97579 12.7181 
8.55087 11.4169 14.1991 
11.3826 8.54089 14.2953 
9.82362 9.99222 15.7316 
11.4301 11.2872 14.4029 
8.4127 8.46278 14.5079 
12.818 9.89697 12.8018 
15.7813 10.1275 12.9286 
14.2671 8.65052 14.2813 
12.9275 9.98532 15.7511 
15.5374 9.89954 15.7681 
14.227 11.4083 14.4297 
18.6685 10.0218 12.9245 
17.0222 8.62555 14.2725 
19.9021 8.53857 14.2948 
20.1366 11.2101 14.3326 
18.5046 10.0208 16.0625 
17.3395 11.5465 14.5183 
21.5929 10.17 12.9848 
24.353 10.1081 12.7633 
21.3994 9.89202 15.7702 
24.4807 9.94641 15.692 
22.9116 8.68248 14.4049 
23.0885 11.3619 14.5024 
27.2729 10.001 12.8684 
28.5839 8.56988 14.3521 
27.3781 10.0647 15.7394 
28.5304 11.5859 14.45 
25.7931 11.5223 14.3711 
25.8948 8.65443 14.4714 
1.26047 12.9052 13.0024 
1.25482 15.8705 12.9184 
2.78859 14.4708 14.1826 
1.47688 12.9004 15.8327 
1.49029 15.5428 15.8068 
4.22956 12.8309 12.8904 
4.12303 15.7673 12.7219 
7.16641 12.8516 12.9216 
7.08992 15.8185 12.8728 
5.58874 14.4043 14.2409 
4.39878 15.9733 15.8006 
4.40746 13.0337 15.7921 
7.09952 13.0862 15.6776 
6.77278 15.9252 15.8711 
10.0775 12.9189 13.0825 
10.2252 15.8584 12.7787 
8.41443 14.4694 14.3569 
9.94149 13.047 15.6672 
9.97408 15.7541 15.6079 
11.4769 14.5092 14.3643 
12.7472 12.9001 13.0191 
15.6728 13.0289 13.0279 
12.9431 15.8271 13.0298 
15.651 15.7313 13.0692 
12.8132 12.7981 15.853 
15.7252 12.7692 16.0908 
12.6434 15.9081 16.0153 
15.6504 15.7803 15.8638 
14.2878 14.4543 14.3955 
18.7326 12.8256 13.0538 
18.6381 15.705 13.0291 
18.851 12.8515 15.9684 
18.541 15.7802 15.8486 
17.1148 14.2199 14.4539 
20.0376 14.2329 14.4254 
21.6115 12.7211 13.1164 
21.5699 15.7725 12.8989 
24.4559 12.8541 12.9335 
24.3744 15.6559 12.936 
22.9205 14.2153 14.3126 
21.4911 12.9073 15.7152 
21.6013 15.7897 15.8276 
24.3137 15.7584 15.7863 
24.2877 12.9972 15.6555 
27.1629 12.9126 12.9379 
27.1461 15.9001 13.0682 
28.6583 14.4477 14.3053 
27.0726 12.9001 15.8689 
27.2724 15.8269 15.8321 
25.85 14.3462 14.4249 
1.42548 18.6014 13.1388 
1.34182 18.7337 15.8077 
2.79433 17.1106 14.3977 
2.94911 20.1526 14.4569 
4.23129 18.6851 13.0005 
7.02011 18.6636 12.8653 
5.72925 20.0266 14.3529 
5.71245 17.1327 14.3928 
4.16487 18.7887 15.8327 
7.27496 18.779 15.7167 
10.1669 18.6779 13.0662 
11.5653 20.2692 14.292 
8.67813 20.0604 14.1787 
8.53455 17.2062 14.2529 
9.88209 18.8245 15.8083 
11.4427 17.4505 14.5295 
12.9069 18.6797 12.93 
15.8007 18.5754 13.1551 
12.7881 19.0061 15.9257 
15.8034 18.6562 15.8607 
14.2093 17.232 14.6209 
14.4321 19.9657 14.5008 
18.5279 18.476 12.8801 
17.2404 20.0862 14.1562 
18.7951 18.5596 15.9018 
20.0978 19.8613 14.4083 
17.314 17.1599 14.3805 
20.0966 16.9717 14.4182 
21.8294 18.3846 13.1233 
24.3493 18.4813 12.8606 
23.078 17.164 14.4717 
21.578 18.6459 15.8466 
24.4084 18.8561 15.9408 
23.0138 20.2082 14.3818 
27.2587 18.6177 12.9703 
27.2348 18.8468 15.8571 
25.8168 17.1312 14.4784 
28.6699 20.1989 14.3682 
28.5447 17.2107 14.4008 
25.7832 19.9637 14.4133 
1.42879 21.3364 12.8368 
1.51369 24.4664 12.9004 
2.91188 23.008 14.191 
1.38513 21.604 15.7348 
1.50067 24.5584 15.7603 
4.32745 24.5436 12.9298 
7.24019 24.4365 12.7191 
4.28072 21.3536 12.8321 
7.01885 21.5755 12.8423 
4.40561 24.4551 15.8021 
4.28917 21.7555 15.9595 
7.1813 21.5992 15.6944 
6.9498 24.5211 15.8954 
5.65144 22.9232 14.3918 
10.1037 24.4491 12.8784 
10.0689 21.5279 12.8087 
9.79326 21.5834 15.7796 
9.99812 24.3492 15.9349 
8.47489 23.184 14.3989 
11.2953 22.9766 14.4018 
12.8901 24.3443 13.0368 
13.0403 21.4717 12.6801 
15.6932 21.4094 12.922 
15.8531 24.4943 12.8488 
13.0256 21.5698 15.7093 
15.7717 21.6471 15.9533 
12.9798 24.3253 15.6589 
15.6877 24.3101 15.9942 
14.3062 22.9184 14.3935 
18.7041 24.4758 12.8475 
18.7462 21.6776 13.1289 
18.4085 21.335 15.8438 
18.4573 24.5619 15.7776 
16.9888 23.0083 14.3819 
19.8036 22.9703 14.5995 
24.3648 21.5368 13.106 
24.3414 24.5541 12.9128 
21.358 21.7198 13.0679 
22.8987 22.9221 14.5342 
21.5637 21.5385 15.896 
24.2165 21.3451 16.0416 
24.4547 24.4533 15.7243 
21.5516 24.4653 15.8966 
27.4119 24.4079 12.9828 
27.0615 21.4662 12.9765 
28.6357 23.0494 14.2862 
27.201 21.5089 15.9636 
27.4336 24.4501 15.832 
25.8963 22.9906 14.4986 
1.47057 27.3003 12.9003 
1.47119 27.3043 15.8878 
2.84125 25.9972 14.3987 
7.37925 27.1815 12.9289 
4.2999 27.3118 12.9278 
5.76672 25.8131 14.308 
4.35816 27.2934 15.7032 
7.27197 27.3791 15.8037 
5.97531 28.6381 14.3712 
10.0525 27.2386 12.8215 
9.97427 27.2144 15.9089 
11.4578 25.8119 14.392 
8.63826 25.7625 14.4152 
12.8728 27.3076 13.0007 
15.8081 27.3585 12.7673 
14.449 25.8935 14.3438 
12.7199 27.2058 15.7407 
15.727 27.2732 15.7894 
17.1228 25.8685 14.2652 
18.6806 27.2166 12.7755 
20.2161 25.894 14.2707 
20.1347 28.6625 14.2786 
17.1405 28.5925 14.1933 
18.5741 27.2618 15.6005 
21.7535 27.3701 12.8365 
24.4862 27.2051 12.679 
21.6074 24.6529 12.9632 
21.4622 27.3573 16.0176 
24.3839 27.2831 15.9935 
23.0411 25.9246 14.6238 
23.0642 28.5584 14.4036 
27.2321 27.174 12.9052 
28.6949 25.8545 14.3465 
27.3421 27.1949 16.0266 
25.7659 25.9635 14.4366 
1.30513 1.35897 18.748 
2.95992 2.76097 17.1482 
0.0281915 2.80257 17.1942 
2.82962 0.00561153 17.2809 
2.79967 2.84768 19.9937 
2.86761 0.021862 20.2786 
0.0183887 2.94598 20.0537 
4.29627 1.5822 18.6918 
7.22377 1.46905 18.6851 
5.63315 2.93689 17.2771 
5.83297 2.96177 20.0775 
5.94191 0.0152814 20.2322 
10.2947 1.44425 18.8303 
8.68693 2.92265 17.2182 
11.5364 3.02293 17.2927 
8.71793 0.0347715 17.1274 
11.5212 0.0881961 17.1529 
8.8195 2.82903 20.0092 
11.6463 2.97101 20.135 
11.5877 0.0654056 20.2308 
12.8907 1.37344 18.6876 
15.5401 1.54104 18.6119 
14.3889 2.85711 17.0014 
14.3767 0.027463 17.1623 
14.255 3.15091 20.167 
18.5104 1.53866 18.5855 
17.2163 2.86169 17.041 
20.0223 2.78538 17.2678 
17.1879 0.0278903 17.1445 
17.1853 2.91973 20.1779 
20.0737 2.98508 20.0874 
16.9797 0.106366 19.8288 
19.9613 0.0726969 20.1059 
21.308 1.45501 18.5891 
22.8736 2.91769 17.2423 
24.4869 1.56947 18.6415 
22.8363 0.085534 17.1472 
23.027 2.89746 20.0031 
22.9748 0.347001 20.0541 
28.6862 0.00903298 17.4029 
27.2115 1.57397 18.8231 
25.9752 3.00497 17.2514 
25.837 0.0189673 17.2535 
26.0027 2.96216 20.1975 
25.8191 0.24173 20.2383 
1.43933 4.33899 18.6509 
1.32033 7.12113 18.6791 
2.83935 5.65594 17.1407 
2.97866 5.62081 20.1454 
0.0520375 5.61829 20.1308 
4.22711 4.3692 18.6476 
4.34682 6.99851 18.8524 
7.18666 4.30576 18.5305 
5.65225 5.86356 17.2907 