ITEM: TIMESTEP
67042
ITEM: NUMBER OF ATOMS
18
ITEM: BOX BOUNDS pp pp pp
0.0000000000000000e+00 2.8712000000000000e+01
0.0000000000000000e+00 2.8712000000000000e+01
0.0000000000000000e+00 2.8712000000000000e+01
ITEM: ATOMS x y z c_cna 
15.8278 21.5814 7.18023 5 
15.6405 24.5662 6.76504 5 
18.8127 21.394 6.76499 5 
17.2266 22.9801 5.76846 5 
18.6253 24.3789 7.18024 5 
17.2313 20.0058 8.60262 5 
20.047 20.1598 8.60261 5 
14.2522 22.9847 8.60263 5 
15.8279 21.5814 10.025 5 
15.6405 24.5662 10.4403 5 
16.4774 23.7291 8.60262 5 
17.9758 22.2311 8.60258 5 
20.201 22.9756 8.60263 5 
18.8128 21.3941 10.4403 5 
17.2266 22.9801 11.4368 5 
18.6254 24.3789 10.025 5 
14.4062 25.8004 8.60263 5 
17.2219 25.9544 8.60263 5 
ITEM: TIMESTEP
67043
ITEM: NUMBER OF ATOMS
18
ITEM: BOX BOUNDS pp pp pp
0.0000000000000000e+00 2.8712000000000000e+01
0.0000000000000000e+00 2.8712000000000000e+01
0.0000000000000000e+00 2.8712000000000000e+01
ITEM: ATOMS x y z c_cna 
15.8278 21.5814 7.18023 5 
15.6405 24.5662 6.76504 5 
18.8127 21.394 6.76499 5 
17.2266 22.9801 5.76846 5 
18.6253 24.3789 7.18024 5 
17.2313 20.0058 8.60262 5 
20.047 20.1598 8.60261 5 
14.2522 22.9847 8.60263 5 
15.8279 21.5814 10.025 5 
15.6405 24.5662 10.4403 5 
16.4774 23.7291 8.60262 5 
17.9758 22.2311 8.60258 5 
20.201 22.9756 8.60263 5 
18.8128 21.3941 10.4403 5 
17.2266 22.9801 11.4368 5 
18.6254 24.3789 10.025 5 
14.4062 25.8004 8.60263 5 
17.2219 25.9544 8.60263 5 
