ITEM: TIMESTEP
67042
ITEM: NUMBER OF ATOMS
2001
ITEM: BOX BOUNDS pp pp pp
0.0000000000000000e+00 2.8712000000000000e+01
0.0000000000000000e+00 2.8712000000000000e+01
0.0000000000000000e+00 2.8712000000000000e+01
ITEM: ATOMS x y z c_cna 
1.4347 1.44713 1.42451 3 
2.86957 2.88265 2.86038 3 
2.86972 0.0113234 2.85998 3 
4.30422 1.44793 1.42383 3 
7.1724 1.45055 1.42115 3 
5.73914 2.88408 2.85961 3 
5.73904 0.0127956 2.85859 3 
10.0384 1.45624 1.41483 3 
8.60791 2.88671 2.85787 3 
11.4773 2.88914 2.85415 3 
11.4648 0.0297745 2.84023 3 
8.60548 0.0172566 2.85413 3 
12.9136 1.45634 1.41409 3 
15.7903 1.45439 1.41571 3 
14.3522 2.88764 2.85426 3 
14.3483 0.0269899 2.84209 3 
18.6651 1.45263 1.4174 3 
17.2269 2.88613 2.85559 3 
20.0998 2.88505 2.85708 3 
20.1047 0.0187284 2.85035 3 
17.2301 0.0228909 2.84625 3 
22.9705 2.8835 2.85881 3 
24.4059 1.44772 1.42281 3 
21.537 1.45047 1.41967 3 
22.9703 0.0121072 2.85725 3 
28.7113 2.88222 2.86047 3 
27.2767 1.44743 1.42399 3 
25.8405 2.88222 2.86005 3 
25.8418 0.0122679 2.85876 3 
28.7117 0.0112795 2.85998 3 
1.43461 4.31802 1.42497 3 
1.43502 7.18854 1.4252 3 
2.86981 5.75357 2.86071 3 
4.3045 4.31898 1.42454 3 
7.17399 4.3207 1.4233 3 
4.30527 7.18946 1.42509 3 
7.17568 7.19028 1.42463 3 
5.73995 5.75471 2.86034 3 
10.044 4.32231 1.42118 3 
10.0466 7.19054 1.42393 3 
8.61051 5.75555 2.85966 3 
11.4818 5.75564 2.85866 3 
12.9169 4.32188 1.42076 3 
15.7903 4.32092 1.42126 3 
12.9185 7.19016 1.42362 3 
15.7905 7.18961 1.42364 3 
14.3541 5.75485 2.85856 3 
18.663 4.32014 1.42199 3 
18.6624 7.18915 1.42382 3 
17.2264 5.75417 2.85894 3 
20.0982 5.75376 2.85949 3 
24.4057 4.31837 1.424 3 
21.5349 4.31937 1.4229 3 
21.5341 7.18871 1.42414 3 
22.9696 5.75335 2.86004 3 
24.4055 7.18829 1.42455 3 
28.7114 5.75287 2.86076 3 
27.2761 4.31777 1.42478 3 
27.2765 7.18814 1.42497 3 
25.8406 5.75291 2.86048 3 
1.43587 10.0588 1.42504 3 
2.87054 8.62413 2.86086 3 
2.87127 11.4947 2.86075 3 
0.00111714 11.4935 2.86024 3 
3.92749e-05 8.62334 2.8607 3 
4.30612 10.0597 1.4253 3 
7.17663 10.0602 1.42517 3 
5.74105 8.62493 2.86084 3 
5.74171 11.4954 2.86095 3 
10.0474 10.0601 1.42472 3 
8.61194 8.62517 2.86057 3 
11.4832 8.625 2.86016 3 
8.61239 11.4955 2.86076 3 
11.4833 11.495 2.86025 3 
12.9188 10.0597 1.42424 3 
15.7904 10.0592 1.42385 3 
14.3548 8.62458 2.85987 3 
14.3546 11.4946 2.85959 3 
18.6623 10.0587 1.42363 3 
17.2264 8.62417 2.85976 3 
20.0981 8.62376 2.85982 3 
17.2265 11.4941 2.85897 3 
20.0988 11.4934 2.85855 3 
21.5344 10.0582 1.42356 3 
22.9697 8.62333 2.86002 3 
22.9712 11.4926 2.85859 3 
24.4063 10.0577 1.42381 3 
27.2774 10.058 1.4245 3 
25.8411 8.62311 2.86038 3 
25.8425 11.4927 2.85955 3 
1.43662 12.9292 1.42449 3 
1.43683 15.8003 1.42373 3 
2.87146 14.3656 2.86039 3 
0.00191813 14.3641 2.85949 3 
4.30632 15.8011 1.42455 3 
4.30648 12.9303 1.42507 3 
7.17688 12.9306 1.42501 3 
7.17631 15.8009 1.42414 3 
5.74168 14.3661 2.86064 3 
10.0472 12.93 1.42425 3 
10.0469 15.8006 1.42301 3 
8.61242 14.3662 2.86033 3 
11.4824 14.3649 2.85905 3 
12.918 12.929 1.42306 3 
15.7898 12.9282 1.42207 3 
12.9159 15.7979 1.41983 3 
15.7878 15.7956 1.41747 3 
14.3531 14.3633 2.85721 3 
18.6626 12.9274 1.42127 3 
18.6626 15.7938 1.41568 3 
17.226 14.3621 2.85562 3 
20.1007 14.3606 2.85421 3 
21.536 12.9263 1.42071 3 
21.5394 15.7918 1.41397 3 
22.9757 14.359 2.85404 3 
24.4146 15.7919 1.41467 3 
24.409 12.9259 1.42108 3 
27.2791 12.9275 1.42319 3 
27.2807 15.7976 1.42101 3 
25.8451 14.3615 2.85773 3 
1.43642 18.6721 1.42343 3 
2.87125 17.2369 2.85996 3 
2.87085 20.1085 2.85969 3 
0.00115134 20.1078 2.85839 3 
0.00194056 17.2354 2.85849 3 
4.30591 18.6724 1.42406 3 
7.17532 18.6716 1.42293 3 
5.74124 17.237 2.8601 3 
5.74085 20.1083 2.85946 3 
10.0442 18.6695 1.41979 3 
8.61116 17.2361 2.85896 3 
11.4825 17.2362 2.85747 3 
8.60956 20.1067 2.85712 3 
11.4759 20.1018 2.85047 3 
12.9176 18.6712 1.4192 3 
15.7878 18.668 1.41625 3 
14.3482 17.2295 2.85049 3 
14.3546 20.1082 2.85239 3 
18.6641 18.6658 1.41471 3 
17.2228 17.2253 2.84627 3 
20.1046 17.2212 2.84199 3 
17.2242 20.1 2.84825 3 
20.1114 20.0952 2.84271 3 
21.5433 18.6632 1.41127 3 
24.4147 18.6672 1.41391 3 
22.9882 17.2183 2.84005 3 
22.9854 20.102 2.84191 3 
27.2802 18.6706 1.42061 3 
25.8475 17.2309 2.85395 3 
25.846 20.1059 2.85409 3 
1.43592 21.5442 1.42349 3 
2.87048 22.9801 2.85965 3 
1.43546 24.4161 1.42372 3 
0.000470456 22.9801 2.85882 3 
4.30508 24.416 1.42355 3 
4.30552 21.5441 1.42371 3 
7.17453 21.5434 1.42196 3 
5.74044 22.9801 2.85889 3 
7.17376 24.4161 1.42121 3 
10.042 21.5414 1.41743 3 
8.60845 22.9795 2.85557 3 
11.4717 22.9764 2.84629 3 
10.0402 24.4161 1.41569 3 
12.9144 21.5415 1.41627 3 
15.7906 21.5441 1.41873 3 
14.3464 22.9777 2.8483 3 
15.7876 24.4189 1.41804 3 
12.9122 24.4176 1.41476 3 
18.6653 21.5413 1.41797 3 
17.2265 22.9801 2.85495 3 
20.1066 22.9825 2.84819 3 
18.6624 24.416 1.41868 3 
21.5407 21.5426 1.41464 3 
24.4127 21.5441 1.41557 3 
22.9812 22.9839 2.84615 3 
24.4109 24.4188 1.41732 3 
21.5385 24.4188 1.41613 3 
27.2792 21.544 1.42114 3 
25.8444 22.9807 2.85547 3 
27.2784 24.4168 1.42191 3 
1.43506 27.2878 1.42407 3 
2.87008 25.8517 2.85974 3 
5.92937e-05 25.8519 2.85941 3 
4.30456 27.288 1.42353 3 
7.17279 27.2896 1.42072 3 
5.73979 25.8524 2.8585 3 
10.0383 27.2929 1.41408 3 
8.60694 25.8543 2.85423 3 
11.4676 25.8581 2.84208 3 
12.9096 27.2969 1.41142 3 
15.7888 27.2944 1.41477 3 
14.3416 25.8649 2.84281 3 
18.6651 27.2922 1.41618 3 
17.2288 25.8602 2.84826 3 
20.0983 25.852 2.85227 3 
21.5353 27.2891 1.41905 3 
22.977 25.8585 2.85031 3 
24.4087 27.2908 1.41963 3 
27.2777 27.2886 1.42285 3 
25.8433 25.8535 2.857 3 
1.43448 1.44645 4.29603 3 
1.43433 1.44598 7.1671 3 
2.86958 2.88213 5.73165 3 
2.86979 0.01066 5.73146 3 
4.30464 1.4472 4.29569 3 
7.1738 1.44927 4.29478 3 
4.30481 1.44669 7.16707 3 
7.17443 1.44842 7.16689 3 
5.73954 2.88345 5.73138 3 
5.73998 0.0117795 5.73104 3 
10.0414 1.45311 4.293 3 
10.043 1.45151 7.16668 3 
8.60895 2.8856 5.7309 3 
11.4802 2.88573 5.73044 3 
8.60878 0.0142783 5.73043 3 
11.4752 0.0192319 5.73086 3 
12.9091 1.45677 4.28584 3 
15.7883 1.45321 4.28741 3 
12.9161 1.44937 7.16695 3 
15.7856 1.44675 7.16226 3 
14.3514 2.88442 5.72769 3 
14.3394 0.0242702 5.71478 3 
18.6644 1.45132 4.29043 3 
18.6603 1.4463 7.16618 3 
17.2252 2.8827 5.72909 3 
20.0977 2.88249 5.73077 3 
17.2261 0.0189081 5.72172 3 
20.1022 0.0156518 5.72674 3 
21.5358 1.44896 4.2932 3 
24.4046 1.44634 4.29534 3 
21.5335 1.44652 7.16684 3 
24.4035 1.4452 7.16703 3 
22.9691 2.88205 5.73132 3 
22.9678 0.00953404 5.73091 3 
28.711 2.88166 5.73169 3 
27.2759 1.44651 4.29585 3 
27.2754 1.44588 7.16707 3 
25.8397 2.88139 5.73159 3 
28.7111 0.0104473 5.73153 3 
25.8403 0.0108696 5.73127 3 
1.43443 4.31756 4.29626 3 
1.43484 7.18836 4.29636 3 
1.43431 4.31729 7.16718 3 
1.43473 7.18826 7.1672 3 
2.86978 5.7533 5.73177 3 
4.30468 4.3185 4.29605 3 
4.30535 7.18928 4.29633 3 
7.17456 4.32004 4.29554 3 
7.17607 7.18998 4.29615 3 
4.30473 4.31821 7.16717 3 
7.17487 4.31967 7.16702 3 
4.30536 7.18917 7.16722 3 
5.74016 5.75439 5.73165 3 
7.1763 7.18984 7.16719 3 
10.0453 4.32082 4.2948 3 
10.0474 7.19002 4.2958 3 
10.0461 4.3201 7.16689 3 
8.6111 5.75506 5.73144 3 
10.0479 7.18978 7.16711 3 
11.4828 5.75459 5.73109 3 
12.9167 4.32042 4.29324 3 
15.7897 4.31904 4.29354 3 
12.9189 7.18956 4.29535 3 
15.7905 7.18894 4.29529 3 
12.9183 4.31865 7.16659 3 
15.7893 4.31697 7.16599 3 
12.9195 7.18912 7.16694 3 
14.3543 5.75358 5.73052 3 
15.7906 7.18844 7.1668 3 
18.6622 4.3184 4.29455 3 
18.662 7.18857 4.29554 3 
18.6606 4.3165 7.16692 3 
17.2258 5.75284 5.73087 3 
18.6615 7.18811 7.16699 3 
20.0972 5.7527 5.73146 3 
21.5338 4.3181 4.29541 3 
21.5334 7.18832 4.29584 3 
24.4048 7.18809 4.29606 3 
24.4048 4.31757 4.29591 3 
21.5328 4.31711 7.16709 3 
24.4043 4.31705 7.16709 3 
21.5329 7.18809 7.16708 3 
22.9688 5.75276 5.7316 3 
24.4044 7.18797 7.16709 3 
28.7111 5.7526 5.73178 3 
27.2756 4.3172 4.2962 3 
27.276 7.18796 4.29625 3 
27.2753 4.31684 7.16714 3 
25.8401 5.75256 5.73169 3 
27.2758 7.18786 7.16716 3 
1.43568 10.059 4.29629 3 
1.43558 10.059 7.16718 3 
2.8705 8.6241 5.73184 3 
2.8712 11.4949 5.73181 3 
0.000828142 11.4938 5.73157 3 
4.30621 10.0599 4.29646 3 
7.17698 10.0603 4.29647 3 
4.30624 10.0599 7.16727 3 
5.74123 8.62487 5.73187 3 
7.17721 10.0604 7.16729 3 
5.7419 11.4957 5.73195 3 
10.0481 10.0602 4.29627 3 
8.6124 8.62508 5.73179 3 
10.0486 10.0603 7.16725 3 
11.4839 8.62484 5.73159 3 
8.6129 11.4957 5.73194 3 
11.4842 11.4956 5.73179 3 
12.9195 10.06 4.29595 3 
15.7909 10.0598 4.29557 3 
12.9202 10.0602 7.16716 3 
14.3553 8.6245 5.73135 3 
15.7915 10.0602 7.16702 3 
14.3557 11.4956 5.73151 3 
18.6624 10.0593 4.2953 3 
17.2265 8.62414 5.73125 3 
18.6624 10.0598 7.1668 3 
20.0976 8.62379 5.73133 3 
17.2271 11.4954 5.73089 3 
20.0987 11.4947 5.73054 3 
21.5341 10.0587 4.29531 3 
24.4057 10.0582 4.29569 3 
21.5335 10.0591 7.1669 3 
22.9691 8.62343 5.73149 3 
22.9703 11.4936 5.73102 3 
24.4052 10.0585 7.167 3 
28.7118 8.62334 5.73173 3 
27.277 10.0582 4.29601 3 
25.8406 8.62316 5.73162 3 
27.2767 10.0584 7.16708 3 
25.8419 11.4932 5.73132 3 
1.43634 12.9297 4.29602 3 
1.43633 15.801 4.29564 3 
1.43619 12.93 7.16712 3 
1.43605 15.8015 7.16704 3 
2.87133 14.3661 5.73169 3 
0.0014175 14.3648 5.7313 3 
4.30655 12.9307 4.29638 3 
4.30644 15.8018 4.29614 3 
7.17736 12.9312 4.29647 3 
7.17703 15.8019 4.29611 3 
4.3066 12.931 7.16726 3 
4.3065 15.8023 7.16722 3 
7.17767 12.9315 7.16733 3 
5.74195 14.3667 5.73188 3 
7.1775 15.8025 7.16729 3 
10.0481 12.9309 4.29619 3 
10.0483 15.8021 4.29564 3 
10.0487 12.9313 7.16731 3 
8.61322 14.367 5.73188 3 
10.0494 15.8033 7.16728 3 
11.4838 14.3664 5.73157 3 
12.9191 12.9303 4.29558 3 
15.7908 12.9299 4.2946 3 
12.9171 15.7994 4.29342 3 
15.7885 15.7969 4.29052 3 
12.9202 12.9313 7.16722 3 
15.7924 12.9318 7.16699 3 
12.9195 15.8019 7.167 3 
14.3552 14.3659 5.73091 3 
15.7927 15.802 7.16625 3 
18.6632 12.9292 4.29356 3 
18.6647 15.795 4.28739 3 
18.6637 12.9312 7.16603 3 
17.2278 14.3656 5.72914 3 
18.6674 15.8014 7.16228 3 
20.1016 14.3638 5.7277 3 
21.5363 12.9278 4.2932 3 
21.5438 15.7914 4.28575 3 
24.4077 12.9274 4.2947 3 
24.4116 15.795 4.29283 3 
21.5348 12.9295 7.16658 3 
21.5369 15.7988 7.16691 3 
22.9728 14.3624 5.73036 3 
24.41 15.7966 7.16656 3 
24.4069 12.9281 7.16681 3 
27.2785 12.9282 4.29542 3 
27.2792 15.7989 4.29462 3 
27.2781 12.9285 7.16693 3 
25.8441 14.3626 5.73077 3 
27.2785 15.7998 7.16677 3 
1.43583 18.6726 4.29519 3 
1.4354 18.6732 7.16689 3 
2.87107 17.2376 5.73151 3 
2.87073 20.109 5.73128 3 
0.000928009 17.2364 5.73094 3 
4.30622 18.6732 4.29583 3 
7.17647 18.6728 4.29548 3 
4.30641 18.6738 7.16715 3 
5.74177 17.2379 5.73171 3 
7.1774 18.6739 7.16723 3 
5.74184 20.1094 5.73145 3 
10.0457 18.6707 4.29337 3 
8.61254 17.2376 5.73153 3 
10.0481 18.6731 7.16701 3 
11.4851 17.2389 5.73113 3 
8.61204 20.1088 5.73088 3 
11.479 20.1044 5.72683 3 
12.9197 18.6734 4.2923 3 
15.7761 18.6554 4.27498 3 
12.9246 18.6783 7.16739 3 
14.3508 17.2327 5.72685 3 
15.7813 18.6617 7.15745 3 
14.3628 20.1164 5.72938 3 
18.6639 18.6462 4.26367 3 
17.227 17.2293 5.72174 3 
18.685 18.6627 7.13594 3 
20.1137 17.2239 5.71474 3 
17.1944 20.0584 5.68588 3 
20.1961 20.0106 5.62746 3 
21.5744 18.6322 4.25191 3 
24.4152 18.6628 4.28565 3 
21.5393 18.6674 7.17718 3 
22.9778 17.2289 5.73074 3 
22.9828 20.093 5.71466 3 
24.4079 18.6698 7.16683 3 
27.2788 18.6703 4.29306 3 
28.7119 20.108 5.7304 3 
25.8442 17.2339 5.73026 3 
27.2771 18.6719 7.16647 3 
25.8428 20.1051 5.72753 3 
1.43525 21.5442 4.29516 3 
1.43487 24.4157 4.29544 3 
1.43472 21.5443 7.16674 3 
2.87041 22.9801 5.73118 3 
1.43438 24.4152 7.16691 3 
4.306 21.5445 4.29547 3 
4.30564 24.416 4.29522 3 
7.17617 21.5443 4.29454 3 
7.1755 24.4168 4.2935 3 
4.3064 21.5451 7.16699 3 
7.17799 21.546 7.16698 3 
5.74168 22.9807 5.73083 3 
7.17749 24.4172 7.166 3 
4.30606 24.416 7.16677 3 
10.0432 21.5421 4.29048 3 
10.0413 24.4182 4.2874 3 
10.0482 21.5463 7.16625 3 
8.6118 22.9813 5.72911 3 
11.4756 22.9804 5.72175 3 
10.0477 24.4209 7.16227 3 
12.9018 21.5297 4.27498 3 
15.7962 21.5498 4.28653 3 
12.8926 24.4173 4.26375 3 
15.7806 24.426 4.26003 3 
12.908 21.5348 7.15745 3 
15.8278 21.5814 7.18023 5 
14.3048 22.9479 5.68594 3 
12.909 24.4384 7.13596 3 
15.6405 24.5662 6.76504 5 
18.6725 21.5341 4.25997 3 
18.6569 24.4104 4.28648 3 
18.8127 21.394 6.76499 5 
17.2266 22.9801 5.76846 5 
20.1483 23.0123 5.68588 3 
18.6253 24.3789 7.18024 5 
21.5604 21.5428 4.26361 3 
24.4116 21.542 4.28725 3 
24.4096 24.4182 4.29033 3 
21.544 21.5218 7.13591 3 
22.9773 22.9798 5.72162 3 
24.4047 24.414 7.16607 3 
24.4052 21.5393 7.16215 3 
21.5451 24.4254 7.15738 3 
21.5512 24.4306 4.27486 3 
28.7111 22.9795 5.73074 3 
27.2774 21.5434 4.29339 3 
27.2767 24.4159 4.29442 3 
27.2753 21.5429 7.16588 3 
25.841 22.9789 5.72896 3 
27.2748 24.4143 7.16681 3 
1.43465 27.2871 4.29576 3 
1.43437 27.2865 7.16702 3 
2.87009 25.8513 5.73126 3 
4.30508 27.2877 4.29525 3 
7.17414 27.2898 4.2932 3 
4.30542 27.287 7.16689 3 
5.74094 25.8522 5.73048 3 
7.17582 27.2883 7.16657 3 
10.0378 27.2974 4.28583 3 
8.61006 25.8551 5.72768 3 
10.0451 27.2903 7.16695 3 
11.4702 25.8671 5.71478 3 
12.8786 27.3279 4.25204 3 
15.7892 27.314 4.26372 3 
12.9138 27.2927 7.17726 3 
14.257 25.9495 5.62754 3 
15.7681 27.2975 7.13596 3 
18.6769 27.3048 4.27491 3 
17.2587 25.9019 5.6859 3 
18.6718 27.2986 7.15741 3 
20.0903 25.8439 5.72931 3 
21.5332 27.2869 4.29215 3 
24.4072 27.2896 4.29318 3 
21.5285 27.2822 7.16726 3 
22.974 25.856 5.72667 3 
24.4048 27.2873 7.16678 3 
28.711 25.8509 5.73132 3 
27.2764 27.2875 4.29531 3 
25.8408 25.8515 5.73068 3 
27.2754 27.2864 7.16701 3 
2.86953 2.88193 8.6026 3 
1.43429 1.44595 10.038 3 
2.86951 2.88213 11.4735 3 
2.86977 0.0103479 8.60256 3 
2.86972 0.0106466 11.4737 3 
5.73966 2.8832 8.60262 3 
5.74025 0.0112985 8.60262 3 
4.30479 1.44667 10.0381 3 
7.17444 1.44841 10.0383 3 
5.73951 2.88342 11.4738 3 
5.73995 0.0117489 11.4742 3 
8.60928 2.88525 8.6026 3 
11.4811 2.88499 8.60262 3 
8.60948 0.0133416 8.60263 3 
11.4764 0.0180081 8.60262 3 
10.043 1.45149 10.0385 3 
8.60892 2.88558 11.4743 3 
11.4802 2.88569 11.4748 3 
11.4752 0.0192122 11.4744 3 
8.60876 0.0142648 11.4748 3 
14.3536 2.88203 8.60262 3 
12.9161 1.44935 10.0383 3 
15.7856 1.44674 10.043 3 
14.3514 2.88437 11.4775 3 
14.3546 0.0086037 8.60263 3 
14.3394 0.0242464 11.4905 3 
17.2231 2.88009 8.60261 3 
20.0965 2.88127 8.60256 3 
20.0984 0.0119393 8.60257 3 
18.6603 1.44632 10.039 3 
17.2252 2.88268 11.4761 3 
20.0978 2.88249 11.4743 3 
17.217 0.0120197 8.60262 3 
20.1023 0.0156756 11.4784 3 
17.2261 0.0189247 11.4835 3 
22.9686 2.8815 8.60251 3 
22.9666 0.0082901 8.60252 3 
22.9679 0.00952107 11.4742 3 
21.5336 1.44652 10.0382 3 
22.9692 2.88202 11.4737 3 
24.4035 1.44518 10.038 3 
28.7108 2.88144 8.60253 3 
28.7109 0.0100729 8.60251 3 
25.8394 2.88104 8.6025 3 
25.8403 0.010829 11.4738 3 
28.7109 2.88164 11.4734 3 
27.2754 1.44587 10.0379 3 
25.8397 2.88133 11.4734 3 
25.8398 0.0102814 8.6025 3 
28.711 0.0104163 11.4735 3 
2.86973 5.75321 8.60259 3 
1.43425 4.31728 10.038 3 
1.43466 7.18828 10.0379 3 
2.86972 5.75331 11.4734 3 
5.74022 5.75429 8.6026 3 
4.30471 4.31821 10.038 3 
4.30534 7.18916 10.038 3 
7.17487 4.31967 10.0382 3 
7.17629 7.18984 10.038 3 
5.74012 5.75439 11.4735 3 
8.61132 5.7549 8.6026 3 
11.4832 5.75426 8.6026 3 
10.0461 4.32008 10.0383 3 
10.0479 7.18976 10.0381 3 
8.61109 5.75504 11.4738 3 
11.4828 5.75456 11.4741 3 
14.3547 5.75302 8.6026 3 
12.9182 4.31865 10.0386 3 
15.7893 4.31697 10.0392 3 
12.9195 7.1891 10.0383 3 
15.7906 7.18843 10.0384 3 
14.3543 5.75355 11.4747 3 
17.2253 5.75213 8.6026 3 
20.0967 5.75229 8.60257 3 
18.6606 4.31649 10.0383 3 
18.6615 7.1881 10.0382 3 
17.2259 5.75282 11.4743 3 
20.0973 5.75267 11.4737 3 
22.9685 5.75257 8.60251 3 
21.5328 4.3171 10.038 3 
21.5329 7.18808 10.038 3 
22.9689 5.75274 11.4735 3 
24.4043 4.31703 10.0379 3 
24.4045 7.18797 10.0379 3 
28.711 5.7525 8.60255 3 
25.8399 5.75243 8.60252 3 
27.2753 4.31684 10.0379 3 
28.711 5.75259 11.4733 3 
27.2758 7.18787 10.0379 3 
25.8401 5.75253 11.4733 3 
2.87044 8.62409 8.60258 3 
2.87115 11.495 8.60259 3 
0.000699508 11.4939 8.60255 3 
1.43552 10.059 10.038 3 
2.87042 8.62409 11.4733 3 
2.87113 11.4949 11.4734 3 
0.000766212 11.4938 11.4736 3 
5.74127 8.62484 8.60261 3 
5.74197 11.4957 8.60263 3 
4.3062 10.0599 10.0379 3 
7.1772 10.0603 10.0379 3 
5.74117 8.62484 11.4733 3 
5.74186 11.4956 11.4733 3 
8.61258 8.62505 8.60261 3 
11.4842 8.62479 8.60262 3 
8.61309 11.4959 8.60263 3 
11.4845 11.4958 8.60262 3 
11.4839 8.62483 11.4736 3 
10.0486 10.0603 10.038 3 
8.61237 8.62505 11.4734 3 
8.61288 11.4957 11.4733 3 
11.4841 11.4955 11.4735 3 
14.3556 8.62445 8.60261 3 
14.3563 11.496 8.60263 3 
12.9201 10.0602 10.0381 3 
15.7915 10.0602 10.0382 3 
14.3553 8.62446 11.4738 3 
14.3558 11.4956 11.4737 3 
17.2265 8.62413 8.6026 3 
20.0974 8.62381 8.60257 3 
17.2277 11.4961 8.60265 3 
20.0983 11.4952 8.6026 3 
18.6624 10.0598 10.0384 3 
17.2265 8.62411 11.4739 3 
20.0977 8.62376 11.4739 3 
17.2272 11.4954 11.4743 3 
20.0988 11.4946 11.4747 3 
22.9688 8.62346 8.60254 3 
22.9698 11.4939 8.60256 3 
21.5336 10.0591 10.0382 3 
22.9692 8.6234 11.4736 3 
22.9703 11.4936 11.4741 3 
24.4052 10.0584 10.0381 3 
28.7117 8.62334 8.60254 3 
25.8405 8.62317 8.60252 3 
25.8417 11.4933 8.60255 3 
28.7117 8.62334 11.4734 3 
27.2767 10.0583 10.038 3 
25.8406 8.62315 11.4735 3 
25.8419 11.4931 11.4738 3 
2.87128 14.3663 8.60261 3 
0.00124882 14.365 8.60256 3 
1.43614 12.93 10.038 3 
1.436 15.8015 10.0382 3 
2.8713 14.366 11.4735 3 
0.00135962 14.3647 11.4738 3 
5.74205 14.3669 8.60266 3 
4.30658 12.9309 10.038 3 
4.30647 15.8023 10.0381 3 
7.17765 12.9314 10.038 3 
7.17747 15.8025 10.038 3 
5.74193 14.3666 11.4734 3 
8.61352 14.3673 8.60267 3 
11.4844 14.3669 8.60267 3 
10.0487 12.9313 10.038 3 
10.0494 15.8033 10.0381 3 
8.6132 14.367 11.4735 3 
11.4838 14.3664 11.4738 3 
14.3565 14.3671 8.60266 3 
12.9202 12.9312 10.0381 3 
15.7924 12.9318 10.0383 3 
12.9195 15.8019 10.0383 3 
15.7928 15.802 10.0391 3 
14.3553 14.3658 11.4744 3 
17.2299 14.3682 8.60266 3 
20.0994 14.3661 8.60263 3 
18.6638 12.9312 10.0393 3 
18.6675 15.8014 10.043 3 
17.2279 14.3655 11.4762 3 
20.1016 14.3637 11.4776 3 
22.9719 14.3632 8.60259 3 
21.5348 12.9295 10.0386 3 
21.5369 15.7988 10.0383 3 
22.9728 14.3624 11.4748 3 
24.4101 15.7966 10.0385 3 
24.4069 12.9281 10.0383 3 
25.8437 14.3629 8.60254 3 
27.2781 12.9285 10.0382 3 
27.2785 15.7998 10.0383 3 
25.844 14.3626 11.4744 3 
2.871 17.2379 8.60262 3 
2.87068 20.1093 8.60261 3 
0.00061119 17.2369 8.60256 3 
1.43537 18.6732 10.0383 3 
2.87102 17.2376 11.4737 3 
2.87068 20.109 11.4739 3 
0.00088655 17.2365 11.4742 3 
5.74193 17.2382 8.60266 3 
5.74218 20.1099 8.60266 3 
4.30638 18.6738 10.0381 3 
7.17738 18.6739 10.0381 3 
5.74171 17.2379 11.4736 3 
5.74177 20.1094 11.4738 3 
8.61306 17.2381 8.6027 3 
11.4864 17.2402 8.60268 3 
8.61326 20.1102 8.60269 3 
11.4827 20.1083 8.60266 3 
10.0481 18.6732 10.0384 3 
8.61253 17.2376 11.4738 3 
11.4852 17.2389 11.4742 3 
8.61202 20.1089 11.4745 3 
11.479 20.1044 11.4785 3 
14.3547 17.2364 8.60266 3 
14.3725 20.1261 8.60264 3 
12.9246 18.6783 10.0379 3 
15.7814 18.6617 10.0478 3 
14.3508 17.2327 11.4784 3 
14.3628 20.1164 11.4759 3 
17.2361 17.2362 8.60265 3 
20.0985 17.2395 8.60262 3 
17.2313 20.0058 8.60262 5 
20.047 20.1598 8.60261 5 
18.685 18.6627 10.0693 3 
17.227 17.2293 11.4835 3 
20.1138 17.2239 11.4905 3 
17.1945 20.0584 11.5193 3 
20.1961 20.0107 11.5777 3 
22.9766 17.2301 8.60256 3 
22.9672 20.1083 8.60257 3 
21.5393 18.6674 10.028 3 
22.9778 17.2289 11.4744 3 
22.9828 20.093 11.4905 3 
24.4079 18.6698 10.0383 3 
28.7113 20.1085 8.60258 3 
25.8435 17.2348 8.60254 3 
25.8405 20.1073 8.60254 3 
28.7119 20.108 11.4747 3 
27.2771 18.6719 10.0386 3 
25.8442 17.2339 11.4748 3 
25.8428 20.1051 11.4776 3 
2.87037 22.9801 8.60259 3 
1.43435 24.4152 10.0382 3 
1.4347 21.5443 10.0384 3 
2.87035 22.9802 11.474 3 
5.74233 22.9813 8.60265 3 
7.17745 24.4173 10.0393 3 
4.30602 24.416 10.0384 3 
4.30636 21.5451 10.0383 3 
7.17795 21.546 10.0384 3 
5.74161 22.9808 11.4744 3 
8.61437 22.9834 8.60267 3 
11.4825 22.9895 8.60265 3 
10.0477 24.4209 10.043 3 
10.0482 21.5464 10.0391 3 
8.61177 22.9814 11.4762 3 
11.4757 22.9805 11.4836 3 
14.2522 22.9847 8.60263 5 
12.909 24.4384 10.0693 3 
14.3048 22.9479 11.5193 3 
15.8279 21.5814 10.025 5 
12.908 21.5349 10.0478 3 
15.6405 24.5662 10.4403 5 
16.4774 23.7291 8.60262 5 
17.9758 22.2311 8.60258 5 
20.201 22.9756 8.60263 5 
18.8128 21.3941 10.4403 5 
20.1484 23.0124 11.5194 3 
17.2266 22.9801 11.4368 5 
18.6254 24.3789 10.025 5 
22.9705 22.9707 8.60258 3 
21.5451 24.4255 10.0478 3 
21.5441 21.5218 10.0693 3 
24.4052 21.5393 10.043 3 
22.9774 22.9798 11.4836 3 
24.4047 24.414 10.039 3 
28.7104 22.979 8.60254 3 
25.8385 22.9768 8.60254 3 
28.7111 22.9796 11.4744 3 
27.2753 21.543 10.0392 3 
25.8411 22.9789 11.4762 3 
27.2748 24.4143 10.0383 3 
2.87007 25.851 8.60256 3 
2.87003 25.8513 11.4739 3 
1.43433 27.2865 10.038 3 
5.74142 25.8518 8.60262 3 
5.7409 25.8523 11.4748 3 
4.30538 27.2871 10.0383 3 
7.17581 27.2883 10.0387 3 
8.61239 25.8529 8.60263 3 
11.4858 25.8519 8.60263 3 
11.4702 25.8672 11.4905 3 
8.61006 25.8551 11.4776 3 
10.0451 27.2903 10.0383 3 
14.4062 25.8004 8.60263 5 
14.2571 25.9495 11.5777 3 
15.7682 27.2975 10.0693 3 
12.9138 27.2927 10.028 3 
17.2219 25.9544 8.60263 5 
20.0807 25.8343 8.60261 3 
17.2588 25.9019 11.5193 3 
18.6718 27.2986 10.0478 3 
20.0904 25.844 11.4759 3 
22.9703 25.852 8.60255 3 
21.5285 27.2822 10.0379 3 
22.9741 25.856 11.4784 3 
24.4048 27.2873 10.0382 3 
28.7105 25.8504 8.60252 3 
25.8396 25.8502 8.6025 3 
27.2754 27.2864 10.038 3 
25.8408 25.8515 11.4744 3 
28.7109 25.8509 11.4738 3 
1.4344 1.44643 12.9091 3 
2.86947 2.88263 14.3448 3 
1.43461 1.44714 15.7807 3 
2.86962 0.0113497 14.3452 3 
4.30456 1.44718 12.9095 3 
7.17376 1.44925 12.9104 3 
4.30413 1.44794 15.7814 3 
7.17229 1.45056 15.7841 3 
5.73895 0.0128107 14.3467 3 
5.73904 2.88407 14.3456 3 
10.0414 1.45308 12.9123 3 
10.0383 1.45622 15.7904 3 
11.4772 2.88909 14.351 3 
8.60783 2.88667 14.3473 3 
8.6054 0.0172602 14.3512 3 
11.4647 0.0297678 14.3651 3 
12.9091 1.45671 12.9194 3 
15.7883 1.45318 12.9178 3 
14.3522 2.88759 14.3509 3 
12.9135 1.45631 15.7911 3 
15.7904 1.45439 15.7894 3 
14.3484 0.0269791 14.3632 3 
18.6645 1.45134 12.9147 3 
20.0999 2.88504 14.348 3 
17.227 2.88612 14.3495 3 
18.6652 1.45266 15.7877 3 
17.2302 0.0229306 14.3589 3 
20.1048 0.0187629 14.3548 3 
21.5359 1.44895 12.9119 3 
24.4046 1.4463 12.9097 3 
22.9704 0.0121224 14.3479 3 
21.5371 1.45045 15.7855 3 
24.406 1.44769 15.7824 3 
22.9706 2.88344 14.3463 3 
28.7116 0.01129 14.3452 3 
28.7112 2.88217 14.3447 3 
27.2758 1.44647 12.9092 3 
25.8405 2.88216 14.3451 3 
27.2766 1.44737 15.7812 3 
25.8417 0.0122611 14.3464 3 
1.43436 4.31754 12.9089 3 
1.43475 7.18834 12.9088 3 
2.86972 5.75354 14.3444 3 
1.4345 4.31799 15.7802 3 
1.43492 7.18847 15.78 3 
7.17451 4.32003 12.9096 3 
4.30458 4.31848 12.9091 3 
4.30526 7.18926 12.9088 3 
7.17601 7.18997 12.909 3 
4.30516 7.18939 15.7801 3 
4.30439 4.31897 15.7806 3 
7.17386 4.32068 15.7819 3 
7.17557 7.1902 15.7805 3 
5.73987 5.75466 14.3448 3 
10.0452 4.32077 12.9104 3 
10.0473 7.18999 12.9094 3 
11.4817 5.7556 14.3465 3 
10.0439 4.32228 15.784 3 
10.0466 7.19047 15.7812 3 
8.61043 5.75552 14.3455 3 
15.7904 4.32086 15.7838 3 
12.9166 4.32038 12.9119 3 
15.7897 4.31901 12.9116 3 
12.9189 7.18953 12.9098 3 
15.7905 7.18892 12.9099 3 
14.3541 5.7548 14.3466 3 
12.9169 4.32183 15.7844 3 
12.9185 7.19008 15.7815 3 
15.7905 7.18952 15.7815 3 
18.6623 4.31837 12.9106 3 
18.6621 7.18853 12.9096 3 
20.0983 5.7537 14.3456 3 
18.6632 4.3201 15.7831 3 
18.6625 7.18905 15.7813 3 
17.2265 5.75412 14.3462 3 
24.4049 4.3175 12.9091 3 
21.5339 4.31805 12.9097 3 
21.5335 7.18828 12.9093 3 
24.4049 7.18804 12.909 3 
21.535 4.31931 15.7823 3 
24.4057 4.31828 15.7812 3 
21.5342 7.18861 15.781 3 
24.4055 7.18821 15.7806 3 
22.9697 5.75327 14.3451 3 
27.2756 4.31716 12.9089 3 
27.276 7.18793 12.9089 3 
27.2761 4.31769 15.7804 3 
27.2764 7.18806 15.7802 3 
25.8406 5.75284 14.3446 3 
28.7113 5.75283 14.3444 3 
1.43562 10.0589 12.9089 3 
2.87046 8.62406 14.3443 3 
0.00105348 11.4935 14.3449 3 
1.43581 10.0587 15.7802 3 
2.87119 11.4946 14.3445 3 
4.30613 10.0598 12.9088 3 
7.17693 10.0602 12.9088 3 
5.74095 8.62484 14.3444 3 
5.74164 11.4953 14.3443 3 
4.30604 10.0597 15.7799 3 
7.17651 10.0601 15.7801 3 
10.0481 10.0602 12.909 3 
8.61186 8.62512 14.3446 3 
11.4833 11.495 14.345 3 
8.61232 11.4954 14.3445 3 
10.0474 10.06 15.7805 3 
11.4832 8.62494 14.345 3 
12.9195 10.06 12.9092 3 
15.791 10.0597 12.9096 3 
14.3548 8.62451 14.3453 3 
12.9188 10.0596 15.7809 3 
15.7905 10.0591 15.7813 3 
14.3547 11.4945 14.3456 3 
18.6625 10.0593 12.9099 3 
17.2266 11.494 14.3462 3 
18.6625 10.0586 15.7816 3 
17.2265 8.62409 14.3454 3 
20.0982 8.62367 14.3453 3 
20.0989 11.4933 14.3467 3 
21.5342 10.0586 12.9099 3 
24.4057 10.0582 12.9095 3 
21.5345 10.0581 15.7816 3 
24.4064 10.0577 15.7814 3 
22.9713 11.4925 14.3466 3 
22.9698 8.62325 14.3451 3 
25.8425 11.4927 14.3456 3 
27.2769 10.0582 12.9092 3 
27.2774 10.058 15.7807 3 
25.8411 8.62306 14.3448 3 
28.7119 8.6233 14.3445 3 
1.43628 12.9297 12.9091 3 
1.43626 15.801 12.9095 3 
2.8714 14.3655 14.3448 3 
1.43656 12.9292 15.7807 3 
1.43678 15.8002 15.7814 3 
0.00186173 14.3641 14.3456 3 
4.30651 12.9306 12.9088 3 
4.30638 15.8018 12.9091 3 
7.17732 12.9311 12.9088 3 
7.17698 15.8018 12.9092 3 
4.30624 15.8011 15.7806 3 
4.30642 12.9302 15.7801 3 
7.17681 12.9305 15.7802 3 
7.17621 15.8009 15.7811 3 
5.74162 14.3661 14.3446 3 
10.0481 12.9308 12.9091 3 
10.0483 15.8021 12.9097 3 
10.0472 12.93 15.7809 3 
10.0469 15.8006 15.7822 3 
11.4824 14.3649 14.3462 3 
8.61238 14.3662 14.3449 3 
14.3532 14.3632 14.348 3 
12.9191 12.9302 12.9097 3 
15.7908 12.9299 12.9106 3 
12.9171 15.7994 12.9119 3 
15.7886 15.7969 12.9148 3 
12.918 12.9289 15.7821 3 
15.7898 12.9281 15.7831 3 
12.9159 15.7979 15.7854 3 
15.7879 15.7956 15.7877 3 
18.6634 12.9292 12.9117 3 
18.6648 15.795 12.9178 3 
18.6626 12.9273 15.7839 3 
18.6627 15.7938 15.7895 3 
17.2261 14.3621 14.3496 3 
20.1008 14.3605 14.351 3 
21.5364 12.9277 12.912 3 
21.5439 15.7914 12.9195 3 
24.4077 12.9274 12.9105 3 
24.4116 15.795 12.9123 3 
21.5361 12.9263 15.7845 3 
21.5395 15.7918 15.7912 3 
24.4147 15.7919 15.7905 3 
24.409 12.9259 15.7841 3 
22.9757 14.359 14.3512 3 
27.2784 12.9281 12.9097 3 
27.2792 15.7989 12.9105 3 
27.2791 12.9275 15.782 3 
27.2807 15.7976 15.7842 3 
25.8451 14.3615 14.3474 3 
2.87075 20.1085 14.3455 3 
1.43577 18.6726 12.91 3 
2.87117 17.2369 14.3452 3 
1.43635 18.6721 15.7817 3 
0.00111677 20.1078 14.3468 3 
0.00192076 17.2354 14.3467 3 
4.30614 18.6732 12.9094 3 
7.17643 18.6728 12.9098 3 
5.74075 20.1084 14.3458 3 
4.30581 18.6724 15.7811 3 
7.1752 18.6717 15.7822 3 
5.74116 17.237 14.3451 3 
11.4826 17.2363 14.3478 3 
10.0457 18.6708 12.9119 3 
8.61111 17.2361 14.3463 3 
11.4759 20.1019 14.3548 3 
10.0442 18.6696 15.7854 3 
8.6095 20.1068 14.3481 3 
14.3547 20.1083 14.3528 3 
14.3483 17.2296 14.3547 3 
12.9198 18.6734 12.913 3 
15.7762 18.6555 12.9303 3 
12.9177 18.6713 15.786 3 
15.788 18.668 15.7889 3 
20.1048 17.2212 14.3632 3 
18.664 18.6462 12.9415 3 
17.2243 20.1 14.3569 3 
18.6642 18.6658 15.7905 3 
17.2229 17.2253 14.3589 3 
20.1116 20.0952 14.3625 3 
21.5745 18.6322 12.9533 3 
24.4152 18.6628 12.9195 3 
21.5434 18.6633 15.794 3 
24.4148 18.6672 15.7913 3 
22.9855 20.102 14.3633 3 
22.9883 17.2184 14.3651 3 
25.846 20.1059 14.3511 3 
27.2788 18.6703 12.9121 3 
27.2802 18.6706 15.7846 3 
25.8475 17.2309 14.3512 3 
1.43519 21.5442 12.91 3 
1.4348 24.4157 12.9098 3 
0.000430044 22.9802 14.3464 3 
1.43582 21.5442 15.7817 3 
1.43537 24.4162 15.7815 3 
2.87037 22.9802 14.3456 3 
4.30539 21.5441 15.7815 3 
4.30555 24.4161 12.91 3 
4.3059 21.5446 12.9098 3 
7.17608 21.5444 12.9107 3 
4.30496 24.4161 15.7817 3 
7.1744 21.5435 15.7832 3 
7.17363 24.4162 15.784 3 
5.74034 22.9802 14.3463 3 
7.17543 24.4169 12.9118 3 
10.0413 24.4183 12.9179 3 
10.0432 21.5422 12.9148 3 
11.4717 22.9764 14.359 3 
10.042 21.5415 15.7878 3 
10.0402 24.4161 15.7896 3 
8.60839 22.9796 14.3497 3 
12.8926 24.4174 12.9416 3 
12.9019 21.5297 12.9303 3 
15.7963 21.5498 12.9187 3 
15.7806 24.4261 12.9452 3 
12.9145 21.5415 15.789 3 
15.7907 21.5442 15.7864 3 
12.9122 24.4177 15.7905 3 
15.7877 24.4189 15.7872 3 
14.3465 22.9778 14.357 3 
18.657 24.4105 12.9188 3 
18.6726 21.5342 12.9452 3 
18.6654 21.5413 15.7872 3 
18.6625 24.4161 15.7865 3 
20.1067 22.9825 14.357 3 
17.2266 22.9801 14.3503 3 
21.5513 24.4306 12.9303 3 
24.4117 21.542 12.9179 3 
24.4097 24.4182 12.9149 3 
21.5605 21.5428 12.9416 3 
22.9813 22.9839 14.3591 3 
21.5409 21.5426 15.7906 3 
24.4128 21.5441 15.7897 3 
24.4109 24.4189 15.7879 3 
21.5386 24.4189 15.7891 3 
27.2767 24.4159 12.9107 3 
27.2774 21.5435 12.9118 3 
27.2792 21.5441 15.7841 3 
27.2784 24.4169 15.7833 3 
25.8445 22.9807 14.3497 3 
2.86999 25.8518 14.3455 3 
1.43458 27.2871 12.9094 3 
1.43498 27.2878 15.7812 3 
4.30499 27.2877 12.91 3 
7.17411 27.2899 12.9121 3 
4.30447 27.2881 15.7818 3 
7.1727 27.2896 15.7846 3 
5.73969 25.8525 14.3468 3 
10.0377 27.2974 12.9195 3 
10.0382 27.293 15.7912 3 
8.60691 25.8543 14.3511 3 
11.4676 25.8582 14.3632 3 
15.7892 27.314 12.9415 3 
12.8786 27.3279 12.9533 3 
14.3416 25.865 14.3625 3 
12.9096 27.2969 15.7939 3 
15.7889 27.2944 15.7905 3 
18.677 27.3049 12.9303 3 
18.6652 27.2923 15.789 3 
20.0984 25.8521 14.3529 3 
17.2289 25.8603 14.357 3 
24.4073 27.2896 12.912 3 
21.5333 27.287 12.913 3 
22.9771 25.8585 14.3549 3 
21.5354 27.2891 15.7862 3 
24.4087 27.2908 15.7856 3 
28.712 25.852 14.3458 3 
27.2764 27.2875 12.9098 3 
27.2776 27.2887 15.7824 3 
25.8433 25.8536 14.3482 3 
1.43479 1.44764 18.6523 3 
2.86941 2.88321 17.2164 3 
2.86958 0.0118908 17.2169 3 
0.000156122 0.0120055 17.2171 3 
2.86949 2.88346 20.0878 3 
2.86963 0.0120804 20.0882 3 
0.000165616 0.0121305 20.0883 3 