ITEM: TIMESTEP
67000
ITEM: NUMBER OF ATOMS
2001
ITEM: BOX BOUNDS pp pp pp
0.0000000000000000e+00 2.8712000000000000e+01
0.0000000000000000e+00 2.8712000000000000e+01
0.0000000000000000e+00 2.8712000000000000e+01
ITEM: ATOMS x y z 
1.41749 1.24579 1.50085 
2.94639 2.83453 2.82856 
0.0708807 2.77367 2.75362 
4.41763 1.487 1.24499 
7.12516 1.33207 1.56405 
5.69585 3.00722 3.0439 
6.08309 3.1129 0.0470811 
5.74487 0.00280291 2.89165 
10.0395 1.39963 1.56497 
8.47287 2.72868 2.97141 
11.6418 2.8089 2.72675 
11.417 2.75746 0.148099 
8.62309 2.78054 0.00610235 
12.8814 1.24554 1.28438 
15.8136 1.42408 1.35282 
14.5105 2.76183 2.87211 
14.2936 2.79921 0.0281958 
18.7413 1.40684 1.39566 
17.1904 2.64169 2.91531 
20.0569 2.745 2.90225 
19.8581 2.95178 0.100321 
23.1256 2.92335 2.80581 
24.4719 1.26727 1.3812 
21.4399 1.54722 1.48763 
23.0477 0.0338431 2.89673 
27.2019 1.34387 1.36728 
25.9165 3.02291 2.89779 
25.8055 0.144674 2.92795 
25.8453 2.98416 0.0134932 
1.41895 4.16742 1.39833 
1.60519 7.28287 1.50031 
2.82328 5.64991 2.72721 
0.226405 5.80644 2.92087 
4.28935 4.25175 1.28295 
7.31584 4.3731 1.55497 
4.51408 7.10158 1.29254 
7.28103 7.29872 1.40834 
5.78004 5.61972 2.76371 
10.1087 4.43224 1.51363 
9.96865 4.31458 4.01645 
9.92214 7.24803 1.62196 
8.58955 5.82337 2.93926 
11.4287 5.94643 2.92848 
8.70337 5.81145 0.0705393 
12.9932 4.38572 1.48533 
15.9858 4.53006 1.50073 
13.0158 7.09713 1.40141 
15.886 7.07772 1.30521 
14.4114 5.89101 2.89573 
14.4573 5.61557 0.0573298 
18.6635 4.45113 1.50426 
18.6677 7.14019 1.47067 
17.4133 5.62752 3.02881 
20.0984 5.79731 2.82385 
24.3544 4.57262 1.31641 
21.6304 4.30303 1.49973 
21.375 6.98511 1.28534 
22.9624 5.67007 2.78128 
24.4483 7.13206 1.48163 
27.2687 4.37397 1.43428 
27.377 7.21867 1.47123 
25.7646 5.82165 2.79319 
1.46433 10.128 1.41238 
3.04278 8.47342 2.84415 
2.91179 11.4625 2.78047 
0.131585 11.4746 3.00167 
0.121304 8.60356 2.77472 
3.05974 8.68898 0.117803 
0.0584443 8.59814 0.0764628 
2.92093 11.593 0.0470489 
4.39814 9.94412 1.53074 
7.21409 10.061 1.66201 
5.74497 8.58218 2.89129 
5.77049 11.3571 2.94235 
5.6988 11.4108 0.070091 
10.1861 10.1896 1.57612 
8.60165 8.78551 3.03141 
11.4267 8.50885 2.73298 
8.73076 11.5593 3.09809 
11.5475 11.3903 2.9261 
8.5591 11.3539 0.0052503 
11.4612 11.4926 0.0883516 
11.4437 8.66563 0.0834223 
12.9706 10.1569 1.52346 
15.6457 10.07 1.32307 
14.2662 8.62253 2.96034 
14.5321 11.5507 2.70021 
14.3634 8.57406 0.133204 
18.7009 10.0862 1.50512 
17.0603 8.40324 2.73983 
20.0959 8.56184 3.06841 
17.263 11.545 2.81663 
20.0222 11.3418 2.95293 
17.2767 11.4237 0.15814 
17.1776 8.57952 0.138542 
19.9806 11.4062 0.152679 
21.4341 9.94708 1.37367 
22.863 8.41687 2.64442 
22.9788 11.5766 2.91382 
24.3066 9.99606 1.51694 
22.9591 8.73319 0.0729435 
22.8165 11.485 0.0404675 
27.3793 9.98881 1.41053 
25.8525 8.48324 2.82397 
25.8858 11.3606 2.83157 
25.7686 8.5718 0.0507561 
25.7504 11.5067 0.0938225 
1.42582 12.8091 1.43877 
1.31931 15.7991 1.45632 
2.80899 14.339 2.54433 
4.28026 15.7824 1.27749 
4.3559 12.8615 1.45719 
7.23908 12.8461 1.59906 
7.08918 15.9301 1.52439 
5.66586 14.4461 2.89367 
5.71406 14.2735 0.115679 
11.2146 14.3469 0.0826633 
10.0481 12.7999 1.65664 
9.97822 15.7377 1.39467 
8.57545 14.4294 3.06655 
11.346 14.4649 2.94838 
8.5136 14.3648 0.121245 
12.8002 12.9312 1.69353 
15.7215 13.0098 1.37474 
12.8027 15.8207 1.45445 
15.8572 15.7614 1.45428 
14.2509 14.4547 2.8428 
14.3018 14.2087 0.0516659 
18.5982 12.909 1.56219 
18.6586 15.7019 1.49268 
17.0838 14.365 3.08768 
20.0758 14.3971 2.86938 
17.1943 14.3339 0.207032 
20.0004 14.2875 0.128468 
21.4339 12.7644 1.48283 
21.5722 15.6529 1.55236 
23.0528 14.3226 2.91474 
24.4585 15.8937 1.42652 
24.3661 12.8097 1.61621 
22.9558 14.3615 0.111827 
28.6492 14.4261 2.6747 
27.3492 12.9093 1.32151 
27.0444 15.8424 1.08138 
25.8487 14.2286 2.82075 
25.6119 14.3031 0.0485743 
1.42984 18.6628 1.41524 
3.171 17.1666 2.92207 
2.85703 20.2371 2.62066 
0.0231882 20.1413 2.79128 
4.24477 18.7395 1.3533 
7.01843 18.6505 1.36852 
5.69544 17.2718 2.78842 
5.65664 20.158 2.64225 
11.2994 20.1877 0.0492112 
9.99778 18.6998 1.39095 
8.67434 17.3505 2.78333 
11.3441 17.1804 2.88561 
8.77053 19.9762 2.86651 
11.4907 19.9355 2.81637 
12.8814 18.3647 1.27489 
15.9029 18.5356 1.49315 
14.3808 17.142 2.92549 
14.3557 19.8057 2.77406 
17.2374 17.1719 0.0151434 
18.5604 18.7767 1.31725 
17.2775 17.2212 2.81835 
18.6594 18.7104 4.09625 
20.0008 17.2861 2.83964 
17.1596 20.1135 2.7316 
20.1892 20.0837 2.69374 
19.9822 17.1849 0.111419 
19.9845 20.1826 0.0461761 
21.5259 18.634 1.4692 
24.3637 18.8145 1.34471 
22.8417 16.9426 2.87433 
22.9164 20.1836 2.7401 
22.7088 17.2151 0.192479 
28.5966 17.2303 2.7686 
27.3917 18.5537 1.29201 
25.8156 17.0509 2.68044 
25.7875 20.031 2.86858 
3.06 23.0099 0.024767 
1.38897 21.5763 1.27242 
2.96712 22.9024 2.81966 
1.4898 24.3525 1.18273 
0.0865547 22.8509 2.83213 
4.44189 24.2991 1.43141 
4.42686 21.4741 1.18092 
7.32236 21.4533 1.24935 
5.71822 23.0426 3.06938 
6.99189 24.3298 1.26128 
11.6287 22.9534 0.0492992 
10.04 21.5312 1.49233 
8.58678 22.9918 3.02248 
11.4789 22.8886 2.84004 
10.1399 24.3569 1.28228 
12.9115 21.4031 1.42188 
15.5794 21.4733 1.4354 
14.2531 22.9186 2.68579 
15.6028 24.4826 1.40478 
12.7764 24.4003 1.32937 
18.6604 21.4676 1.44714 
17.263 23.0006 2.87513 
20.0996 23.0561 2.89277 
18.7884 24.4577 1.31014 
17.166 22.9242 0.156083 
20.117 23.1351 0.0599598 
21.5141 21.535 1.50044 
24.3022 21.6589 1.18233 
22.8628 23.1385 2.82073 
24.194 24.2991 1.52393 
21.4642 24.5119 1.38292 
27.2172 21.4755 1.52232 
25.7182 22.8993 2.81653 
27.2954 24.3256 1.35269 
3.00535 28.6452 2.79535 
1.38701 27.183 1.49235 
2.99482 25.8055 2.8109 
0.137462 25.7736 2.92345 
4.28898 27.2395 1.2555 
7.13748 27.2189 1.33547 
5.68967 25.9072 2.81708 
11.381 28.6905 2.95841 
8.54154 28.6704 2.79908 
10.1513 27.1913 1.43827 
8.53541 25.7435 2.72253 
11.4268 25.6241 2.92788 
8.58714 25.9238 0.120381 
14.4372 28.5043 2.87469 
12.8203 27.2022 1.28604 
15.87 27.2685 1.39889 
14.3521 25.8662 2.86672 
20.1103 28.6339 2.82638 
17.4531 28.6306 2.80091 
18.7706 27.3475 1.31431 
17.307 25.9537 2.90832 
19.9113 25.9253 2.71327 
17.3186 25.674 0.0658178 
21.4396 27.3885 1.27327 
22.893 26.0754 2.78049 
24.2701 27.1337 1.33176 
28.6954 28.6345 2.8706 
27.3065 27.1877 1.33582 
25.8704 25.7981 2.62318 
25.8403 25.6589 0.127629 
1.40172 1.41358 4.14876 
1.43386 1.31119 7.28044 
2.85487 2.81581 5.81491 
0.104647 2.83607 5.85841 
2.96989 0.118488 5.70768 
4.27622 1.56747 4.29684 
7.28153 1.30679 4.37538 
4.28416 1.43259 7.2862 
7.13094 1.42556 7.23223 
5.71056 2.84975 5.81891 
5.75147 0.0788048 5.65199 
10.1101 1.54675 4.41271 
10.0768 1.45266 7.19417 
8.86621 2.91102 5.87187 
11.6137 3.04196 5.72948 
8.80528 0.0996761 5.67614 
13.0247 1.3894 4.37032 
15.8246 1.32416 4.17948 
12.9658 1.30881 7.02917 
15.7687 1.45286 7.13569 
14.4085 2.87791 5.6184 
18.7093 1.26329 4.46444 
18.5097 4.10024 4.52603 
18.6161 1.23936 7.22568 
17.1857 2.65934 5.78279 
20.163 2.8731 5.78807 
21.5399 1.3473 4.23644 
24.4312 1.5655 4.36106 
21.4591 1.40808 7.17924 
24.5458 1.68397 6.85008 
22.8831 2.81529 5.48677 
27.3726 1.58754 4.33183 
27.128 1.23012 7.0289 
26.0025 3.04958 5.55575 
1.3722 4.18696 4.24872 
1.57032 7.09698 4.13014 
4.09947 4.2441 4.31277 
1.50468 4.29032 7.21515 
1.39048 6.94995 7.27863 
2.82725 5.76364 5.62649 
0.0373849 5.69171 5.80186 
4.29082 7.26805 4.25161 
7.45962 4.17626 4.58286 
7.0649 7.04721 4.38641 
4.27658 4.15548 7.42566 
7.13188 4.49494 7.23678 
4.38351 7.04663 7.13434 
5.59648 5.53382 5.78361 
7.1897 7.17361 7.20443 
10.0558 7.39523 4.45655 
10.1875 4.59304 7.20128 
8.72261 5.82768 5.67887 
10.1177 7.3548 7.23057 
11.4419 5.70768 5.71708 
12.793 4.44711 4.28315 
15.8205 4.23117 4.24938 
12.8593 7.15375 4.25865 
15.6632 7.2176 4.48204 
12.8728 4.34108 7.05919 
15.8253 4.26295 7.1853 
12.8516 7.25791 7.15309 
14.2478 5.71597 5.81994 
15.6031 7.07495 7.23078 
18.5454 7.26363 4.29641 
18.5784 4.19974 7.0802 
17.0916 5.74718 5.74716 
18.6688 7.3125 7.00584 
20.1141 5.79055 5.79334 
21.3389 4.3229 4.27938 
21.5805 7.17721 4.33471 
24.3854 7.15406 4.30473 
24.3893 4.51204 4.28546 
21.4579 4.40248 7.04941 
24.3552 4.37325 7.14876 
21.4806 7.11889 7.28415 
22.8511 5.76349 5.6269 
24.3525 6.99754 7.04042 
27.4425 4.2612 4.12495 
27.3057 7.10158 4.17366 
27.4183 4.22068 7.10483 
25.9381 5.6911 5.74424 
27.4047 7.2912 7.04414 
1.58895 10.0327 4.37047 
1.42351 9.93646 7.22445 
2.81847 8.57424 5.73678 
2.84685 11.5286 5.79727 
0.0977786 8.4461 5.60709 
0.0185317 11.3814 5.79689 
4.33615 9.9694 4.40453 
7.15783 9.98928 4.49642 
4.34606 10.1776 7.32342 
5.71024 8.54154 5.91876 
7.07581 10.1642 7.22357 
5.66215 11.6474 5.69693 
10.1463 10.08 4.22406 
8.52469 8.5993 5.80316 
9.97756 10.0212 7.21342 
11.543 8.62076 5.64999 
8.59098 11.5717 5.79344 
11.596 11.3968 5.83747 
12.9669 10.1119 4.47573 
15.7068 10.0673 4.27263 
12.8776 10.0153 7.24011 
14.3539 8.5852 5.8884 
15.5614 10.1251 7.24259 
14.3617 11.4686 5.77786 
18.4795 10.0801 4.38202 
16.8959 8.78975 5.80325 
18.5938 10.2527 7.22638 
20.0509 8.52688 5.81946 
17.0823 11.5149 6.01334 
20.0924 11.4666 5.78203 
21.4485 9.92937 4.39382 
24.3081 10.0255 4.48966 
21.5487 10.1351 7.33879 
22.8117 8.5968 5.9032 
22.8773 11.4423 5.80455 
24.4197 10.2458 7.36828 
27.3681 9.90653 4.40508 
25.7198 8.6513 5.60835 
27.2855 9.87524 7.32475 
25.8759 11.4527 5.66101 
1.54703 12.9864 4.10788 
1.50386 15.7906 4.20064 
1.42504 12.9335 7.14209 
1.26938 15.8466 7.35155 
2.66166 14.4079 5.66242 
4.20304 12.9517 4.26376 
4.1747 15.7752 4.34187 
7.11 13.0671 4.36475 
7.13546 15.9144 4.28171 
4.37824 12.9107 7.15539 
4.2511 15.7298 7.08942 
7.21811 12.9814 7.33073 
5.71209 14.3729 5.65573 
7.1339 15.9768 7.23701 
9.9474 13.037 4.53697 
9.9508 15.8609 4.23594 
10.2147 12.9238 7.32381 
8.55222 14.4443 5.90406 
9.98835 16.0103 7.25056 
11.5497 14.356 5.76388 
12.9742 13.0703 4.24551 
15.6689 12.9561 4.29152 
12.8807 15.8303 4.30996 
15.7172 15.943 4.43239 
12.8281 12.9387 7.20686 
15.647 12.8547 7.18791 
12.9618 15.9292 7.17736 
14.311 14.366 5.84262 
15.7299 15.9635 7.16331 
18.6244 12.8728 4.39602 
18.6705 15.796 4.36503 
18.6009 13.1068 7.26849 
17.0696 14.429 5.77448 
18.5268 15.717 7.20954 
20.1174 14.3111 5.72435 
21.4448 12.9418 4.4608 
21.6163 15.6841 4.27758 
24.4833 12.8266 4.37685 
24.3678 15.6709 4.34312 
21.4921 12.7408 7.19045 
21.6446 15.6321 7.12278 
22.8227 14.2411 5.67804 
24.5704 15.6184 7.27121 
24.3969 12.8137 7.15488 
27.4671 12.823 4.34854 
27.3375 15.8274 4.17583 
28.6867 14.2389 5.79603 
27.1642 12.874 7.15842 
26.094 14.3685 5.66177 
27.4007 15.7641 7.19788 
1.67779 18.7542 4.24684 
1.37377 18.8206 7.26218 
2.9517 17.3403 5.82214 
2.92508 20.1752 5.72388 
0.0134594 17.1494 5.71708 
4.32306 18.6927 4.10443 
7.09779 18.8081 4.18601 
4.47669 18.8857 7.03558 
5.6416 17.2187 5.56431 
6.97407 18.7211 7.06296 
5.80059 20.2616 5.68313 
9.88527 18.7333 4.43405 
8.45936 17.3027 5.59601 
10.2026 18.6535 7.05569 
11.4461 17.3413 5.72143 
8.43871 20.1353 5.72573 
11.5072 20.1831 5.78358 
12.865 18.603 4.27395 
15.9147 18.6347 4.29718 
13.1699 18.6544 7.25159 
14.4086 17.3871 5.79922 
16.0769 18.8479 7.09589 
14.5025 19.9602 5.57493 
17.3261 17.2703 5.72997 
18.8189 18.4768 7.10546 
20.096 17.1862 5.86331 
17.5169 20.0831 5.63721 
20.3102 20.0766 5.60555 
21.5296 18.5768 4.2357 
24.2855 18.5467 4.17 
21.7076 18.5672 7.16031 
23.1467 17.071 5.74733 
22.9675 19.9639 5.57075 
24.3779 18.6457 7.2007 
27.3023 18.528 4.32472 
28.6861 20.0864 5.60855 
25.9201 17.1862 5.6951 
27.2771 18.6143 6.9192 
25.6761 20.0494 5.66313 
1.38791 21.5703 4.263 
1.57823 24.4152 4.20886 
1.37028 21.6598 7.1129 
2.96049 23.0498 5.71879 
1.40441 24.3504 7.00128 
0.121296 22.987 5.60994 
4.31553 21.4785 4.26068 
4.32318 24.4367 4.44518 
7.19065 21.5361 4.21687 
7.22117 24.4769 4.23175 
4.42984 21.8065 7.08336 
7.29183 21.5821 7.15047 
5.87847 23.0623 5.66603 
7.28456 24.3468 7.16754 
9.94317 21.4393 4.40138 
10.087 24.3822 4.42561 
9.95294 21.5964 7.12695 
8.63477 22.9664 5.57077 
11.7664 22.9383 5.70813 
10.1645 24.2597 7.12155 
12.8801 21.4119 4.20886 
15.6115 21.5721 4.15588 
12.6645 24.3905 4.17643 
15.7566 24.2663 4.21977 
13.0478 21.4451 7.20937 
15.8955 21.7289 7.01977 
14.2399 22.9645 5.83172 
13.0435 24.3574 7.2694 
15.7385 24.4522 6.64454 
18.829 21.5246 4.11724 
18.6869 24.4539 4.25543 
18.9523 21.4001 6.78735 
17.2531 22.8386 5.46203 
20.2828 23.0675 5.70868 
18.9005 24.356 7.31468 
21.5906 21.6107 4.30283 
24.3257 21.5687 4.22227 
24.3279 24.5019 4.29289 
21.4748 21.4205 7.16206 
22.8808 23.0242 5.76376 
24.4905 24.4812 7.1458 
24.3985 21.4528 6.8972 
21.6637 24.4474 7.09804 
27.2411 21.4822 4.28383 
27.258 24.4784 4.13879 
27.3225 21.5038 6.91396 
25.764 23.1651 5.69062 
27.3409 24.2443 7.14336 
1.54036 27.3026 4.29159 
1.40995 27.3254 6.94329 
2.74247 25.9276 5.67851 
0.0237936 25.7215 5.6547 
4.3157 27.1227 4.22605 
7.36727 27.2735 4.27123 
4.29459 24.7382 6.85013 
4.39185 27.39 6.93642 
5.88591 25.9548 5.76702 
7.16102 27.2775 7.25708 
10.0188 27.133 4.18325 
11.5054 28.4622 5.77944 
8.60582 25.8984 5.73081 
10.0961 27.2743 7.14365 
11.4407 25.7976 5.89953 
12.9257 27.0276 4.23399 
15.8023 27.1461 4.28085 
14.401 28.6531 5.80041 
12.8047 27.1647 7.23677 
14.1603 25.6407 5.687 
15.9324 27.2568 7.18549 
18.596 27.2296 4.428 
17.3217 28.5889 5.67987 
20.1044 28.7014 5.71839 
17.1626 25.9183 5.75953 
18.6783 27.3108 7.20573 
20.0478 25.8235 5.72593 
21.4597 24.69 4.24904 
21.4261 27.2248 4.18322 
24.418 27.0335 4.25729 
22.9317 28.6765 5.71102 
21.31 27.1762 7.17744 
22.9227 25.824 5.61714 
24.2251 27.3208 7.1178 
27.1136 27.3278 4.21318 
28.7025 28.5795 5.59566 
25.8077 28.6623 5.67575 
25.8129 25.743 5.75659 
27.1411 27.2121 7.09175 
2.89216 2.83781 8.74576 
0.0871605 2.6544 8.68962 
0.0180246 0.0152611 8.45597 
1.33233 1.21873 10.2094 
2.83926 2.99145 11.5765 
5.79124 2.77156 8.86501 
5.77019 0.216499 8.58907 
4.20642 1.29086 10.0679 
7.2508 1.59888 10.1198 
5.82758 2.89234 11.5921 
5.71779 0.0530737 11.3515 
8.62341 2.92978 8.57996 
11.4995 2.91475 8.44103 
8.66152 0.0698822 8.66873 
11.4851 0.0483369 8.54978 
10.133 1.48133 10.1508 
8.66999 3.01825 11.4419 
11.476 2.77009 11.523 
11.3357 0.0716254 11.6248 
8.60924 0.092153 11.3468 
14.1516 2.85194 8.58182 
12.8192 1.08642 10.0474 
15.5712 1.36414 9.94723 
14.351 2.68236 11.6428 
17.134 2.77118 8.57352 
20.0412 2.99906 8.6286 
19.9379 0.0316787 8.66899 
18.7589 1.44395 10.0659 
17.155 2.75755 11.5073 
20.0537 2.93646 11.7216 
22.9185 2.92813 8.49285 
22.8418 0.17252 8.70662 
23.0988 0.0754969 11.5545 
21.4202 1.58418 10.0794 
23.0829 2.8603 11.4501 
24.4239 1.47874 9.93005 
25.7435 2.8271 8.35346 
25.6788 0.00711783 11.2964 
28.6981 2.88153 11.4093 
27.3821 1.24743 9.93639 
25.8572 2.66766 11.4274 
2.88284 5.7784 8.78712 
1.47761 4.23835 10.0166 
1.33756 7.18576 10.1134 
2.83047 5.80716 11.448 
5.75499 5.81746 8.57359 
4.44292 4.23286 10.0676 
4.23422 7.19816 10.21 
7.29034 4.37797 10.0387 
7.17898 7.19848 10.0109 
5.66058 5.66854 11.2994 
8.71734 5.84815 8.69017 
11.5294 5.6975 8.61595 
10.2243 4.31355 10.0829 
10.0648 7.33672 10.0838 
8.69635 5.65432 11.3646 
11.534 5.70066 11.4951 
14.2308 5.60824 8.53368 
12.7145 4.25506 10.093 
15.6924 4.30294 9.98528 
12.899 7.1317 10.0518 
15.6745 7.13052 10.0513 
14.4214 5.68802 11.5076 
17.1555 5.71556 8.66455 
20.0053 5.82534 8.56831 
18.6159 4.36518 10.1937 
18.5499 7.20403 9.9589 
17.1039 5.57197 11.5742 
19.8227 5.61707 11.5295 
22.8548 5.83245 8.708 
21.4083 4.26869 10.0099 
21.4069 7.02757 10.1812 
22.8991 5.71455 11.4468 
24.4844 4.21088 9.93085 
24.3763 7.17134 10.0683 
28.6679 5.53527 8.63422 
25.7837 5.70007 8.42483 
27.2295 4.11006 10.0266 
28.577 5.69295 11.3135 
27.3249 7.17894 9.96613 
25.9561 5.7669 11.4022 
2.88569 8.53584 8.67431 
2.83165 11.5431 8.6141 
0.0529788 8.55131 8.70504 
0.0611651 11.5033 8.75235 
1.51989 9.99961 10.0107 
2.916 8.79748 11.5719 
2.80842 11.5339 11.4452 
5.70508 8.619 8.60585 
5.8667 11.5565 8.58834 
4.31963 10.1135 9.97818 
7.14546 10.1754 9.9532 
5.74202 8.7632 11.357 
5.65172 11.5093 11.406 
8.75022 8.66445 8.63273 
11.6235 8.68967 8.67641 
8.73137 11.5636 8.69353 
11.4985 11.444 8.75684 
11.3207 8.66288 11.494 
9.98477 10.1507 9.96447 
8.7013 8.67101 11.4174 
8.56065 11.6023 11.4781 
11.4572 11.4889 11.4549 
14.1119 8.66152 8.70403 
14.2196 11.5831 8.70111 
12.9698 10.1301 10.0902 
15.7694 10.0451 10.0845 
14.3505 8.72326 11.4589 
14.4384 11.5929 11.4422 
17.1938 8.66107 8.69096 
20.0839 8.558 8.61653 
17.1122 11.5084 8.61413 
20.0001 11.4808 8.71003 
18.7552 9.97333 10.1204 
17.273 8.57387 11.477 
20.239 8.62604 11.4273 
17.1051 11.6308 11.4045 
20.3201 11.5123 11.6023 
22.858 8.58192 8.67749 
23.0503 11.5587 8.76365 
21.5523 9.96155 10.0645 
22.9025 8.45934 11.503 
22.9384 11.4425 11.5498 
24.5137 10.0968 10.0271 
25.7133 8.57093 8.55532 
25.9466 11.5982 8.71476 
28.5318 8.70302 11.5175 
28.6403 11.4161 11.5788 
27.3742 10.1223 10.0367 
25.8598 8.69017 11.3567 
26.0109 11.4699 11.5159 
2.86515 14.4989 8.74417 
0.0236038 14.2743 8.41896 
1.50927 12.9953 10.0151 
1.45036 15.9057 10.1028 
3.02069 14.3757 11.4267 
0.073196 14.3944 11.5319 
5.76587 14.5562 8.6683 
4.32791 12.9687 10.0569 
4.34519 15.892 10.241 
7.32231 13.1161 10.117 
7.19238 15.9953 10.076 
5.77432 14.3158 11.5455 
8.83678 14.3845 8.47382 
11.4993 14.5511 8.61711 
10.083 12.9545 10.059 
10.2327 15.9156 9.91868 
8.67345 14.6174 11.4478 
11.5204 14.3557 11.4474 
14.4418 14.3032 8.57143 
12.9577 13.0026 10.1116 
15.7587 12.945 10.0437 
12.8563 15.8346 10.0999 
15.9426 15.9228 10.2713 
14.4636 14.5049 11.4827 
17.2792 14.2605 8.8525 
20.1197 14.3142 8.81103 
18.7498 12.9657 10.288 
18.7896 15.6574 10.1222 
17.2291 14.3417 11.6542 
20.3898 14.339 11.5684 
23.008 14.2182 8.66122 
21.6385 12.8069 10.0067 
21.7288 15.8591 9.99836 
23.01 14.2698 11.5506 
24.5558 15.6878 10.0607 
24.5137 13.0086 10.14 
26.0551 14.2631 8.55245 
27.351 13.0608 10.0486 
27.2207 15.6817 9.95171 
25.7923 14.2529 11.6181 
2.88611 17.3424 8.45861 
2.83893 20.1093 8.45114 
0.0410105 17.3789 8.70324 
1.36408 18.8963 10.3003 
2.96221 17.37 11.347 
2.96327 20.1287 11.478 
0.0768852 17.0796 11.4722 
5.63195 17.4811 8.5916 
5.82201 20.3424 8.62117 
4.33963 18.8919 9.95914 
7.21758 18.7024 10.1179 
5.80084 17.3073 11.5036 
5.81213 20.1092 11.578 
8.62754 17.5706 8.50112 
11.5944 17.4011 8.79572 
8.52571 20.076 8.47044 
11.389 20.1554 8.7244 
9.99722 18.685 10.1364 
8.56431 17.1592 11.6308 
11.4207 17.2937 11.4958 
8.65637 20.0637 11.5693 
11.6608 20.0924 11.4885 
14.4008 17.241 8.75022 
14.521 20.1432 8.67901 
13.0969 18.6473 10.0963 
15.8646 18.5317 10.0396 
14.5666 17.4539 11.5162 
14.4926 20.1127 11.2649 
17.3397 17.37 8.73968 
20.0748 17.2632 8.72115 
17.437 19.9764 8.42535 
20.1681 19.791 8.48976 
18.8216 18.7263 10.1582 
17.3255 17.3589 11.4653 
20.1958 17.3121 11.5288 
17.1589 20.048 11.4626 
20.2324 19.8685 11.7509 
23.14 17.1543 8.63412 
22.8769 20.0513 8.55664 
21.6203 18.6136 9.90761 
23.0834 17.2508 11.6339 
23.0539 20.001 11.3767 
24.588 18.5254 9.93821 
28.6603 20.1598 8.60435 
25.9958 17.203 8.38711 
25.8725 20.0195 8.50548 
28.6785 20.2795 11.6242 
27.1134 18.4946 10.166 
25.927 17.1256 11.7337 
25.7997 20.1015 11.5074 
2.79304 23.1106 8.52518 
1.32882 24.5232 9.94234 
1.49736 21.5151 9.85158 
2.88375 23.0066 11.3985 
5.7456 23.2606 8.59456 
7.10091 24.4498 10.2777 
4.33891 24.4626 10.1812 
4.24481 21.6574 9.99211 
6.98992 21.8258 10.0877 
5.57756 22.8785 11.5558 
8.54463 22.9883 8.5745 
11.338 22.9045 8.57799 
9.97608 24.4552 10.0071 
9.97599 21.5486 10.1521 
8.55591 23.0546 11.7443 
11.69 23.0539 11.5493 
14.3222 22.9783 8.71988 
12.8852 24.3599 9.94884 
14.4384 23.0024 11.3943 
15.981 21.6048 9.88803 
13.0201 21.5955 10.204 
16.6431 23.751 8.57213 
17.8626 22.2743 8.50291 
20.2394 22.7849 8.75474 
18.8074 21.3817 10.2875 
20.1845 22.7961 11.7176 
17.3327 22.9108 11.4222 
18.8241 24.3661 10.2443 
22.8713 22.8786 8.45645 
21.6342 24.2902 9.92605 
21.5056 21.3637 10.1615 
24.3937 21.4981 9.90033 
23.1173 22.9941 11.521 
24.2336 24.3448 10.0109 
28.6581 22.9995 8.50688 
25.691 22.9202 8.40957 
28.7023 22.9843 11.3719 
27.0914 21.6743 9.9239 
25.9402 23.0314 11.3678 
27.315 24.542 9.97647 
2.81154 28.7112 8.64154 
2.81064 25.9969 8.52935 
0.0225944 25.9918 8.33605 
2.79426 28.7105 11.3246 
2.63983 25.9094 11.4666 
1.42636 27.2303 9.94157 
5.74132 25.9525 8.51 
5.61225 25.9231 11.4861 
4.30595 27.2566 9.90228 
7.09569 27.3479 9.89367 
8.65751 25.7594 8.61007 
11.4802 25.7728 8.63472 
11.6192 25.8231 11.4235 
8.53799 26.0511 11.3351 
10.0827 27.1899 10.1131 
14.4279 28.4764 8.48199 
14.4086 25.6426 8.63387 
14.3957 28.5908 11.4786 
14.4009 25.9056 11.491 
15.6726 27.2338 10.0574 
13.0111 27.1552 9.91371 
15.9162 24.6773 10.31 
17.0994 28.6992 8.74494 
17.2716 26.1174 8.71628 
20.2081 25.8151 8.73249 
17.339 25.7862 11.6873 
18.7943 27.2312 10.1872 
20.2328 25.7702 11.5298 
20.1713 28.5764 11.5283 
17.2986 28.6357 11.4703 
22.8065 25.9568 8.57248 
21.5601 27.4766 9.95742 
22.9076 25.7492 11.3157 
24.3461 27.268 9.98243 
25.4266 28.6975 8.42913 
25.8885 25.7078 8.46231 
27.156 27.286 9.84433 
25.8017 25.8456 11.2521 
28.5982 25.8663 11.3847 
28.6819 28.592 11.2111 
1.30989 1.36782 12.9954 
2.87688 2.80338 14.3041 
1.55062 1.41015 15.7336 
4.26684 1.44871 12.7013 
7.20773 1.26398 13.0298 
4.40276 1.55476 15.5791 
7.13456 1.41113 15.7005 
5.70499 0.0470246 14.3749 
5.95718 3.10309 14.4098 
9.88869 1.49799 12.9593 
10.0909 1.45475 15.8114 
11.2971 3.0095 14.5177 
8.68095 2.97723 14.4452 
12.7383 1.55475 13.1225 
15.8162 1.33522 12.9555 
14.3225 2.63694 14.1394 
12.9284 1.57048 15.7276 
15.8822 1.41515 15.7628 
15.7165 4.05152 15.6665 
14.2455 0.130721 14.3801 
18.5648 1.48529 12.8971 
20.0221 2.74718 14.2863 
17.0375 2.7415 14.3008 
18.7007 1.45658 15.7897 
21.6375 1.47813 12.9249 
24.4641 1.64633 12.9009 
23.0393 0.202756 14.3354 
21.6185 1.54305 15.6512 
24.566 1.5455 15.854 
22.9056 3.00483 14.3953 
28.574 0.056571 14.3415 
28.6527 2.59154 14.3076 
27.318 1.31921 12.7436 
26.0151 2.84054 14.2339 
27.2197 1.43301 15.7557 
1.1881 4.42553 12.9989 
1.31679 7.25989 12.9425 
2.81737 5.8846 14.3244 
1.4574 4.47076 15.7252 
1.35863 7.31403 15.8655 
7.12098 4.37535 12.84 
4.1884 4.4561 12.8406 
4.30109 7.18257 12.9079 
7.17773 7.00479 12.8441 
4.18096 7.18589 15.7941 
4.31726 4.35789 15.8282 
7.4291 4.2959 15.8237 
7.17962 7.13204 15.8761 
5.81306 5.682 14.4004 
10.0895 4.37571 12.9397 
10.0775 7.12254 12.8195 
11.517 5.74836 14.3281 
10.0594 4.47184 15.8226 
9.96926 7.35838 15.815 
8.63902 5.72491 14.361 
12.6914 4.22352 13.0344 
15.6865 4.11941 12.87 
12.955 7.20195 12.8309 
15.9279 7.24434 12.8832 
14.3161 5.74984 14.3955 
13.0622 4.36648 15.7652 
12.8539 7.19838 15.783 
15.6269 7.01522 15.6558 
18.4959 4.37226 13.2879 
18.8291 7.51752 12.8898 
20.1039 5.78153 14.2599 
18.7007 4.2825 15.8484 
18.6405 7.09521 15.7068 
17.1722 5.833 14.3955 
24.4885 4.58229 12.9896 
21.4648 4.37376 12.9393 
21.6057 7.11173 12.949 
24.3051 7.25477 13.0622 
21.5148 4.35425 15.7665 
24.4368 4.4225 15.7408 
21.5007 7.22693 15.9753 
24.4434 7.39056 15.9619 
22.8601 5.77636 14.5208 
27.2671 4.3549 12.9134 
27.2732 7.33914 12.9569 
27.1792 4.35529 15.7978 
27.2544 7.28903 15.9988 
25.8427 5.88533 14.4417 
28.6598 5.91844 14.38 
1.36592 9.99814 12.7722 
2.74213 8.78465 14.3517 
0.0792126 11.4536 14.2578 
1.39702 9.92739 16.0392 
2.77021 11.5397 14.5595 
4.34397 10.0126 12.9154 
7.12921 10.0397 12.737 
5.685 8.58485 14.2736 
5.57943 11.4863 14.1744 
4.39038 10.0211 15.8014 
7.14867 10.0738 15.6928 
9.95749 10.1569 12.9809 
8.55116 8.57359 14.2152 
11.6099 11.5438 14.2783 
8.57597 11.6466 14.2311 
9.9412 10.1341 15.6866 
11.5089 8.71482 14.3954 
12.8973 10.152 12.8375 
15.7777 10.1271 12.8934 
14.3793 8.659 14.2688 
12.8923 9.98084 15.7626 
15.7819 9.92844 15.8793 
14.3167 11.3802 14.372 
18.6938 10.2136 13.0242 
17.2265 11.5822 14.2156 
18.5691 10.0411 16.0785 
17.1146 8.53365 14.3841 
20.0388 8.73249 14.4682 
19.8963 11.6246 14.4791 
21.4888 10.0861 13.0614 
24.4502 9.94615 13.0183 
21.4126 10.0929 15.9179 
24.4777 9.99592 15.8376 
23.0059 11.4619 14.5325 
22.8825 8.73984 14.4442 
25.7804 11.3932 14.3186 
27.2732 9.92263 13.054 
27.3341 10.2313 15.8832 
25.9439 8.60684 14.6007 
28.6973 8.53306 14.3675 
1.61038 12.8802 13.0089 
1.72408 15.7229 12.9663 
2.98845 14.2974 14.3415 
1.45599 13.0386 15.8668 
1.61248 15.8362 15.7353 
0.141917 14.3938 14.4047 
4.25297 12.8701 12.8136 
4.43866 15.8391 12.8434 
7.20295 12.9519 12.8171 
7.2333 15.8507 13.0826 
4.30193 15.8371 15.8202 
4.31323 13.0374 15.9108 
7.08602 12.9254 15.6414 
7.19963 15.7218 15.7056 
5.74289 14.3326 14.3944 
10.1938 12.9668 12.9436 
10.3153 15.8096 12.9483 
10.1068 12.9643 15.7774 
10.2566 15.8053 15.6076 
11.732 14.4028 14.36 
8.83349 14.2407 14.3939 
14.3231 14.3906 14.3018 
12.9843 13.0886 12.9108 
15.8529 12.9688 12.9289 
13.1099 16.0084 12.7947 
15.6919 15.7974 13.1165 
12.9325 12.8497 15.8067 
15.7258 12.8088 15.7899 
12.8637 15.9433 15.8161 
15.6192 15.7172 15.6438 
18.6583 12.8764 12.8151 
18.8174 15.8058 12.8239 
18.6324 12.851 15.8498 
18.8768 15.9091 15.7058 
17.2765 14.3676 14.4183 
20.2798 14.4848 14.3665 
21.6928 12.7796 13.0154 
21.6665 15.7486 12.8651 
24.5418 12.934 12.9269 
24.3671 15.6469 13.0203 
21.3571 12.9279 15.7876 
21.4967 15.9346 15.7734 
24.4083 15.7946 15.8109 
24.5104 12.822 15.8607 
22.9485 14.22 14.581 
27.1921 12.913 12.9416 
27.2879 15.7883 13.1095 
27.3297 12.8321 15.7942 
27.3733 15.8301 15.8982 
25.8649 14.451 14.5614 
2.81644 20.0521 14.1995 
1.48512 18.6694 12.8669 
2.79233 17.182 14.251 
1.46175 18.6953 15.6066 
0.0703729 20.2116 14.3574 
4.42487 18.7697 12.9854 
7.12819 18.8071 12.9241 
5.809 20.2913 14.2734 
4.35461 18.8883 15.7818 
7.19581 18.773 15.651 
5.61075 17.2206 14.4545 
11.3832 17.3487 14.2977 
10.1757 18.787 12.854 
8.6193 17.1968 14.2526 
11.3333 20.1433 14.3518 
9.99952 18.7342 15.6996 
8.65826 20.0419 14.3619 
14.5169 19.9961 14.3034 
14.3903 17.4198 14.3532 
13.0642 18.6625 12.8602 
15.9786 18.469 12.9422 
12.9861 18.7604 15.8054 
15.9935 18.761 15.871 
20.1947 17.3799 14.2712 
18.5958 18.5939 13.0198 
17.3322 20.2182 14.3536 
18.655 18.7484 15.8111 
17.3476 17.1013 14.3885 
20.0875 20.2063 14.4988 
21.6118 18.6811 13.232 
24.3598 18.6749 13.034 
21.4262 18.8148 15.8073 
24.4526 18.505 15.8458 
23.0153 20.1975 14.5795 
23.037 17.1519 14.5376 
25.9473 19.9562 14.3382 
27.275 18.747 12.9007 
28.6093 17.2816 14.2258 
27.293 18.6205 15.5384 
25.7596 17.2544 14.426 
1.42228 21.6427 12.828 
1.39918 24.4415 12.8311 
0.0545432 23.1404 14.197 
1.48483 21.6591 15.8342 
1.3786 24.5045 15.8391 
4.04192 21.619 15.8208 
2.69042 23.1125 14.5395 
4.12434 24.3365 13.0556 
4.21811 21.5899 13.0468 
7.07563 21.7449 13.0417 
4.43987 24.57 16.038 
7.26009 21.4839 15.7263 
7.26075 24.3136 15.6845 
5.75247 23.0071 14.4246 
10.0308 24.3812 12.8886 
10.1423 21.6061 12.9962 
11.5513 23.0374 14.3334 
9.97353 21.488 15.8086 
10.1122 24.3749 15.8879 
8.59707 22.9181 14.3627 
13.1501 24.5252 12.7589 
12.9847 21.5818 12.9927 
15.7296 21.381 13.0506 
15.7823 24.324 12.8238 
12.8507 21.4663 15.7091 
15.8776 21.5842 15.6818 
12.8812 24.5241 15.7831 
15.7533 24.3899 15.9194 
14.3917 22.9987 14.3917 
18.8412 24.3784 12.9644 
18.7328 21.4184 12.9614 
18.6991 21.6025 15.7516 
18.6572 24.3864 15.8727 
20.2544 23.0669 14.3565 
17.4081 23.1139 14.3841 
21.7229 24.3604 12.8759 
24.4822 21.649 12.9007 
24.4765 24.4093 12.8956 
21.7442 21.3836 13.0823 
22.9267 23.1158 14.3589 
21.4675 21.7196 15.726 
24.5028 21.5956 15.8249 
24.2826 24.5608 15.8252 
21.5505 24.4506 15.8002 
27.2816 24.4617 12.8967 
27.1819 21.8331 12.8878 
27.3101 21.6929 15.641 
27.2537 24.3364 15.8122 
25.6172 23.0417 14.4817 
2.71685 25.8834 14.34 
2.73862 28.5111 14.1608 
1.18797 27.2879 12.8561 
1.28559 27.4374 15.6985 
4.20031 27.315 12.9392 
7.11961 24.6778 12.8818 
7.07334 27.0554 12.8747 
4.38148 27.2562 15.8052 
7.20753 27.1881 15.5778 
5.65571 26.033 14.4903 
9.99929 27.3543 12.8273 
8.72838 28.7032 14.3414 
10.0558 27.2125 15.8266 
8.69472 25.723 14.4948 
11.4236 25.8083 14.3656 
11.3861 28.7104 14.361 
15.7477 27.3056 13.0127 
12.9647 27.2646 12.8381 
14.3515 25.8509 14.2621 
13.004 27.3946 15.8014 
15.6583 27.2891 15.7708 
17.2848 28.711 14.3553 
18.8493 27.21 13.0081 
18.7034 27.2237 15.7644 
20.0696 28.6316 14.4136 
20.2288 25.6462 14.4129 
17.2672 25.5959 14.4007 
24.5313 27.297 12.9279 
21.6792 27.3369 13.0087 
23.0564 25.9814 14.2214 
21.5631 27.3061 15.7546 
24.4645 27.1905 15.7195 
28.6536 25.8031 14.2141 
27.1013 27.4315 12.7805 
27.2652 27.3472 15.8088 
25.9282 25.7556 14.4362 
25.8403 28.6268 14.3636 
1.47078 1.27002 18.5304 
2.8103 2.92236 17.0706 
3.1199 0.160088 17.0101 
0.159015 0.0833429 17.1114 
2.96583 2.83347 20.1987 
0.0822038 2.99019 20.0085 
4.29856 1.58498 18.7306 
7.2478 1.53848 18.5648 
5.7227 2.95352 17.1783 
5.66818 0.0511703 17.228 
5.68262 2.86993 20.198 
5.72461 0.0725392 20.2416 
10.0453 1.49725 18.7161 
8.81633 3.03881 17.0515 
11.5389 2.80525 17.137 
8.40496 0.00920268 17.1426 
11.4062 0.0524534 17.4266 
8.66531 2.88771 20.0666 
11.3805 2.87444 20.0878 
11.5229 0.0207393 19.8696 
8.60719 0.0472181 20.167 
12.8842 1.56215 18.689 
15.6958 1.572 18.9192 
14.3673 2.73767 17.1935 
14.3745 0.30247 17.2491 
14.2785 3.01555 20.1556 
14.5666 0.0258762 20.0291 
18.7019 1.38848 18.6237 
17.203 2.75101 17.4447 
19.9769 3.06815 17.2209 
17.1229 2.8793 20.2249 
20.0853 2.82484 20.1125 
17.2237 0.137119 20.151 
21.5146 1.4669 18.6605 
22.9417 2.60841 17.3013 
24.4873 1.48451 19.0816 
23.1114 0.172192 17.1728 
22.9089 3.05044 20.0808 
22.8143 0.0448323 19.9728 
28.5962 2.83573 17.1443 
27.2768 1.40111 18.5424 
25.751 2.86552 17.1752 
25.802 0.133669 17.1695 
25.9235 2.84204 20.1944 
1.58191 4.1998 18.6034 
1.27113 7.24579 18.6305 
2.89617 5.8007 17.3018 
2.78592 5.79184 20.1627 
0.0554367 5.6351 19.958 
4.43319 4.34279 18.5723 
4.29463 7.0695 18.6524 
7.24162 4.22095 18.7112 
5.80452 5.73486 17.2325 
7.3859 7.34627 18.6429 
5.79096 5.9137 20.0782 