ITEM: TIMESTEP
68045
ITEM: NUMBER OF ATOMS
2001
ITEM: BOX BOUNDS pp pp pp
0.0000000000000000e+00 2.8712000000000000e+01
0.0000000000000000e+00 2.8712000000000000e+01
0.0000000000000000e+00 2.8712000000000000e+01
ITEM: ATOMS x y z c_cna 
1.43477 1.44721 1.42446 3 
2.86964 2.88268 2.8604 3 
2.86979 0.011419 2.85995 3 
4.30428 1.44802 1.42377 3 
7.17237 1.4506 1.4211 3 
5.7392 2.8841 2.85964 3 
5.73907 0.0128524 2.85858 3 
10.0383 1.45624 1.41476 3 
8.60788 2.8867 2.8579 3 
11.4772 2.88911 2.85418 3 
11.4647 0.0297582 2.84018 3 
8.60546 0.0172818 2.85409 3 
12.9134 1.45633 1.41404 3 
15.7902 1.45439 1.41569 3 
14.3521 2.88763 2.85429 3 
14.3482 0.0269724 2.84204 3 
18.6649 1.45264 1.41738 3 
17.2268 2.88614 2.85559 3 
20.0997 2.88504 2.85704 3 
20.1047 0.018735 2.85026 3 
17.23 0.0229041 2.8462 3 
22.9705 2.88346 2.85875 3 
24.406 1.44772 1.42276 3 
21.5369 1.45048 1.41962 3 
22.9704 0.0121295 2.85715 3 
28.7114 2.88221 2.86048 3 
27.2767 1.44745 1.42394 3 
25.8406 2.88218 2.86003 3 
28.7117 0.0113447 2.85994 3 
25.8418 0.0122894 2.85868 3 
1.43465 4.31803 1.425 3 
1.43509 7.1885 1.42528 3 
2.86989 5.75353 2.8608 3 
4.30456 4.319 1.42457 3 
7.17399 4.32071 1.42334 3 
4.30533 7.1894 1.42515 3 
7.17567 7.19023 1.42469 3 
5.74002 5.75467 2.86043 3 
10.0439 4.3223 1.42123 3 
10.0465 7.19052 1.42401 3 
8.61049 5.75553 2.85978 3 
11.4816 5.75563 2.85878 3 
12.9168 4.32189 1.42081 3 
15.7901 4.32092 1.42132 3 
12.9183 7.19013 1.42371 3 
15.7903 7.18959 1.42374 3 
14.354 5.75484 2.85866 3 
18.6629 4.32013 1.42203 3 
18.6622 7.18911 1.4239 3 
17.2262 5.75416 2.85902 3 
20.0981 5.75372 2.85951 3 
24.4057 4.31834 1.424 3 
21.5348 4.31934 1.4229 3 
21.534 7.18867 1.42416 3 
22.9696 5.75328 2.86003 3 
24.4055 7.18824 1.42459 3 
28.7114 5.75285 2.86081 3 
27.2762 4.31776 1.4248 3 
27.2765 7.18809 1.42506 3 
25.8406 5.75285 2.86053 3 
1.43596 10.0587 1.42514 3 
2.87063 8.62405 2.86096 3 
2.87132 11.4946 2.86086 3 
0.00118205 11.4934 2.86034 3 
7.28032e-05 8.62327 2.86079 3 
4.30618 10.0597 1.42536 3 
7.1766 10.0601 1.42521 3 
5.74109 8.62485 2.86092 3 
5.74172 11.4953 2.86103 3 
10.0473 10.06 1.4248 3 
8.61188 8.62515 2.86067 3 
11.4831 8.62498 2.86028 3 
8.61232 11.4954 2.86084 3 
11.4832 11.495 2.86033 3 
12.9186 10.0596 1.42431 3 
15.7902 10.0592 1.42395 3 
14.3546 8.62456 2.85997 3 
14.3545 11.4946 2.85965 3 
18.6622 10.0587 1.42369 3 
17.2263 8.62412 2.85986 3 
20.098 8.62369 2.85985 3 
17.2264 11.4941 2.85901 3 
20.0987 11.4934 2.85854 3 
21.5344 10.0581 1.42359 3 
22.9697 8.62326 2.86005 3 
22.9712 11.4925 2.85859 3 
24.4064 10.0577 1.42388 3 
27.2775 10.0579 1.42461 3 
25.8411 8.62304 2.86046 3 
25.8426 11.4926 2.85961 3 
1.43671 12.9291 1.42462 3 
1.43694 15.8002 1.42386 3 
2.87153 14.3655 2.86054 3 
0.00199714 14.3641 2.8596 3 
4.30637 15.8011 1.42468 3 
4.30655 12.9302 1.42517 3 
7.17687 12.9306 1.42507 3 
7.17626 15.8009 1.42423 3 
5.7417 14.3661 2.86075 3 
10.0471 12.93 1.4243 3 
10.0469 15.8006 1.42308 3 
8.61236 14.3662 2.86042 3 
11.4823 14.3649 2.8591 3 
12.9178 12.929 1.42311 3 
15.7897 12.9282 1.42209 3 
12.9158 15.7979 1.41987 3 
15.7877 15.7956 1.41746 3 
14.353 14.3632 2.85724 3 
18.6625 12.9273 1.42126 3 
18.6625 15.7937 1.41563 3 
17.2259 14.3621 2.8556 3 
20.1007 14.3605 2.85415 3 
21.536 12.9263 1.4207 3 
21.5394 15.7917 1.41392 3 
22.9757 14.359 2.85397 3 
24.4147 15.7918 1.41467 3 
24.4091 12.9258 1.42112 3 
27.2792 12.9274 1.42328 3 
27.2808 15.7975 1.42108 3 
25.8452 14.3614 2.85776 3 
1.43651 18.6721 1.42353 3 
2.8713 17.2369 2.86009 3 
2.8709 20.1085 2.85976 3 
0.00123755 20.1078 2.85841 3 
0.0020532 17.2354 2.85855 3 
4.30596 18.6725 1.42417 3 
7.17527 18.6717 1.42302 3 
5.74126 17.237 2.8602 3 
5.74086 20.1084 2.85954 3 
10.0441 18.6695 1.41985 3 
8.6111 17.2361 2.85907 3 
11.4825 17.2362 2.85752 3 
8.60955 20.1068 2.85721 3 
11.4759 20.1018 2.85051 3 
12.9175 18.6712 1.41922 3 
15.7878 18.6679 1.41622 3 
14.3481 17.2295 2.85048 3 
14.3546 20.1082 2.85236 3 
18.6641 18.6657 1.41464 3 
17.2228 17.2253 2.8462 3 
20.1047 17.2211 2.84188 3 
17.2242 20.0999 2.84817 3 
20.1115 20.0952 2.84256 3 
21.5434 18.6632 1.41117 3 
24.4148 18.6671 1.41386 3 
22.9883 17.2183 2.83997 3 
22.9855 20.102 2.84178 3 
27.2803 18.6705 1.42061 3 
25.8476 17.2308 2.85394 3 
25.8461 20.1059 2.85402 3 
1.43598 21.5442 1.4235 3 
2.87052 22.9802 2.85962 3 
1.43554 24.4162 1.42365 3 
0.000560817 22.9802 2.85876 3 
4.3051 24.4161 1.42348 3 
4.30555 21.5442 1.42375 3 
7.1745 21.5434 1.42201 3 
5.74045 22.9802 2.8589 3 
7.1737 24.4162 1.42119 3 
10.042 21.5414 1.41748 3 
8.60845 22.9796 2.85561 3 
11.4717 22.9764 2.84631 3 
10.0402 24.4162 1.41567 3 
12.9143 21.5414 1.41625 3 
15.7905 21.5441 1.4187 3 
14.3463 22.9777 2.84825 3 
15.7876 24.4189 1.41797 3 
12.9121 24.4176 1.41473 3 
18.6653 21.5412 1.4179 3 
17.2265 22.9801 2.85485 3 
20.1066 22.9825 2.84807 3 
18.6623 24.416 1.41861 3 
21.5408 21.5425 1.41455 3 
24.4128 21.544 1.41548 3 
22.9813 22.9839 2.846 3 
24.411 24.4188 1.41722 3 
21.5385 24.4188 1.41603 3 
27.2793 21.5441 1.4211 3 
25.8445 22.9807 2.85536 3 
27.2785 24.4169 1.42182 3 
1.43514 27.2879 1.42398 3 
2.87016 25.8519 2.85967 3 
0.000151703 25.852 2.8593 3 
4.30461 27.2882 1.42343 3 
7.17275 27.2897 1.42064 3 
5.7398 25.8525 2.85844 3 
10.0382 27.293 1.41397 3 
8.60693 25.8543 2.85419 3 
11.4675 25.8582 2.84203 3 
12.9095 27.2969 1.41132 3 
15.7887 27.2944 1.4147 3 
14.3415 25.865 2.84274 3 
18.665 27.2922 1.41613 3 
17.2288 25.8602 2.84818 3 
20.0983 25.852 2.85216 3 
21.5353 27.2891 1.41897 3 
22.977 25.8585 2.85016 3 
24.4087 27.2908 1.41955 3 
27.2777 27.2887 1.42275 3 
25.8434 25.8536 2.85688 3 
1.43456 1.44647 4.29604 3 
1.43441 1.44597 7.16714 3 
2.86967 2.88213 5.73171 3 
2.86985 0.0106792 5.73147 3 
4.30472 1.44723 4.29574 3 
7.17384 1.44926 4.29482 3 
4.30492 1.44668 7.1671 3 
7.17453 1.44841 7.16697 3 
5.73963 2.88344 5.73149 3 
5.74006 0.0117744 5.73109 3 
10.0414 1.45308 4.29303 3 
10.043 1.45149 7.16678 3 
8.609 2.88558 5.731 3 
11.4802 2.88569 5.73054 3 
8.60884 0.0142696 5.73049 3 
11.4752 0.0192158 5.7309 3 
12.9091 1.45674 4.28587 3 
15.7882 1.45321 4.28739 3 
12.9162 1.44936 7.16702 3 
15.7856 1.44675 7.16226 3 
14.3514 2.88441 5.72775 3 
14.3393 0.0242819 5.7148 3 
18.6644 1.45133 4.29035 3 
18.6603 1.44629 7.1661 3 
17.2251 2.8827 5.72907 3 
20.0977 2.88245 5.7307 3 
17.2261 0.0189199 5.72164 3 
20.1022 0.0156412 5.72661 3 
21.5358 1.44893 4.29312 3 
24.4046 1.44631 4.29526 3 
21.5336 1.44645 7.16675 3 
22.9692 2.88197 5.73125 3 
22.9678 0.00949141 5.73078 3 
24.4035 1.44511 7.16696 3 
27.2759 1.4465 4.29583 3 
28.711 2.88163 5.73171 3 
27.2754 1.44584 7.16707 3 
25.8398 2.88131 5.73157 3 
28.7112 0.0104665 5.73152 3 
25.8404 0.010845 5.7312 3 
1.43435 4.31725 7.16724 3 
1.43449 4.31754 4.29632 3 
1.4349 7.1883 4.29644 3 
1.43473 7.1882 7.16728 3 
2.86984 5.75325 5.73188 3 
4.30476 4.31849 4.29614 3 
4.30542 7.1892 4.29644 3 
7.17462 4.32002 4.29564 3 
7.17608 7.18996 4.29628 3 
4.30482 4.3182 7.16724 3 
7.17496 4.31967 7.16718 3 
4.30542 7.18912 7.16735 3 
5.74024 5.75438 5.73179 3 
7.17633 7.18984 7.16735 3 
10.0453 4.32078 4.29491 3 
10.0473 7.19003 4.29596 3 
10.0462 4.32009 7.16705 3 
8.61114 5.75504 5.7316 3 
10.0479 7.18979 7.16729 3 
11.4828 5.7546 5.73125 3 
12.9166 4.32041 4.29336 3 
15.7896 4.31905 4.29358 3 
12.9188 7.18956 4.2955 3 
15.7904 7.18894 4.2954 3 
12.9183 4.31867 7.16671 3 
15.7893 4.31698 7.16606 3 
12.9195 7.18915 7.16711 3 
14.3542 5.75358 5.73065 3 
15.7906 7.18844 7.16692 3 
18.6621 4.31837 4.29453 3 
18.6619 7.18853 4.29558 3 
18.6606 4.31645 7.1669 3 
17.2258 5.75281 5.73092 3 
18.6615 7.18804 7.16702 3 
20.0972 5.75263 5.73142 3 
21.5338 4.31803 4.29536 3 
21.5334 7.18824 4.29584 3 
24.4048 7.188 4.29608 3 
24.4048 4.31748 4.29588 3 
21.5328 4.31701 7.16704 3 
24.4043 4.31692 7.16707 3 
21.5329 7.18797 7.16707 3 
22.9688 5.75266 5.73158 3 
24.4044 7.18786 7.16711 3 
28.7111 5.75254 5.73183 3 
27.2757 4.31714 4.29622 3 
27.276 7.1879 4.2963 3 
27.2753 4.31677 7.16716 3 
25.8401 5.75246 5.73171 3 
27.2757 7.18777 7.16718 3 
1.43572 10.0589 4.29637 3 
1.43552 10.0589 7.16724 3 
2.87053 8.62402 5.73194 3 
2.87119 11.4948 5.73191 3 
0.000826875 11.4937 5.73162 3 
4.30623 10.0598 4.29656 3 
7.17696 10.0602 4.29658 3 
4.30621 10.0599 7.16738 3 
5.74124 8.62482 5.73201 3 
7.17717 10.0603 7.16746 3 
5.74188 11.4956 5.73207 3 
10.0481 10.0602 4.2964 3 
8.61238 8.62506 5.73196 3 
10.0485 10.0603 7.16742 3 
11.4839 8.62486 5.73176 3 
8.61282 11.4957 5.73207 3 
11.4841 11.4956 5.73189 3 
12.9194 10.06 4.29607 3 
15.7908 10.0597 4.29565 3 
12.9201 10.0602 7.1673 3 
14.3553 8.6245 5.73149 3 
15.7915 10.0602 7.16709 3 
14.3557 11.4956 5.73159 3 
18.6623 10.0593 4.29531 3 
17.2264 8.6241 5.73131 3 
18.6624 10.0597 7.16682 3 
20.0976 8.62371 5.73133 3 
17.2271 11.4954 5.7309 3 
20.0987 11.4946 5.73048 3 
21.534 10.0586 4.2953 3 
24.4056 10.0582 4.2957 3 
21.5335 10.059 7.16688 3 
22.9691 8.62334 5.73148 3 
22.9702 11.4936 5.73098 3 
24.4051 10.0584 7.16699 3 
28.7118 8.62326 5.73181 3 
27.277 10.0581 4.29608 3 
25.8406 8.62307 5.73165 3 
27.2767 10.0583 7.1671 3 
25.8419 11.4931 5.73131 3 
1.43638 12.9296 4.29611 3 
1.43638 15.801 4.29573 3 
1.43613 12.9299 7.16716 3 
1.43601 15.8016 7.16704 3 
2.87135 14.3661 5.73178 3 
0.00142204 14.3647 5.73133 3 
4.30659 12.9306 4.29649 3 
4.30647 15.8018 4.29625 3 
7.17734 12.9311 4.29655 3 
7.17699 15.8018 4.2962 3 
4.30654 12.9309 7.16736 3 
4.30644 15.8023 7.16727 3 
7.17759 12.9314 7.16746 3 
5.74192 14.3666 5.73197 3 
7.17739 15.8025 7.16736 3 
10.048 12.9308 4.29626 3 
10.0482 15.802 4.29571 3 
10.0486 12.9313 7.16741 3 
8.61314 14.367 5.73197 3 
10.0494 15.8032 7.16732 3 
11.4837 14.3663 5.73162 3 
12.919 12.9303 4.29563 3 
15.7907 12.9299 4.29463 3 
12.917 15.7994 4.29344 3 
15.7885 15.7969 4.29046 3 
12.9202 12.9312 7.16728 3 
15.7924 12.9318 7.16698 3 
12.9194 15.8018 7.16701 3 
14.3552 14.3658 5.73089 3 
15.7928 15.802 7.16617 3 
18.6632 12.9291 4.2935 3 
18.6647 15.795 4.2873 3 
18.6637 12.9312 7.16596 3 
17.2278 14.3655 5.72908 3 
18.6675 15.8015 7.16213 3 
20.1016 14.3638 5.72757 3 
21.5363 12.9277 4.29313 3 
21.5439 15.7914 4.28563 3 
24.4077 12.9273 4.29467 3 
24.4116 15.795 4.29278 3 
21.5347 12.9295 7.16646 3 
21.5369 15.7988 7.16676 3 
22.9728 14.3624 5.73027 3 
24.4069 12.9281 7.16672 3 
24.41 15.7967 7.16648 3 
27.2785 12.9281 4.29546 3 
27.2792 15.7989 4.29465 3 
27.2781 12.9285 7.16691 3 
25.844 14.3626 5.73073 3 
27.2785 15.7998 7.16672 3 
1.43589 18.6726 4.29524 3 
1.43534 18.6733 7.16686 3 
2.87107 17.2376 5.73155 3 
2.87075 20.1091 5.73129 3 
0.000932921 17.2365 5.73095 3 
4.30625 18.6732 4.29591 3 
7.17647 18.6728 4.29558 3 
4.30635 18.6739 7.16716 3 
5.74172 17.2379 5.73179 3 
7.17736 18.6739 7.16725 3 
5.74182 20.1095 5.73151 3 
10.0456 18.6707 4.29345 3 
8.61247 17.2375 5.7316 3 
10.0481 18.6731 7.16701 3 
11.4851 17.2388 5.73118 3 
8.61205 20.1089 5.73091 3 
11.479 20.1044 5.72687 3 
12.9197 18.6734 4.29231 3 
15.7761 18.6554 4.2749 3 
12.9246 18.6782 7.16735 3 
14.3508 17.2326 5.72679 3 
15.7813 18.6616 7.15733 3 
14.3628 20.1163 5.72934 3 
18.6639 18.6462 4.26354 3 
17.227 17.2293 5.72162 3 
18.685 18.6628 7.13579 3 
20.1137 17.2239 5.71458 3 
17.1944 20.0584 5.68576 3 
20.1961 20.0107 5.6273 3 
21.5745 18.6322 4.25176 3 
24.4152 18.6628 4.28555 3 
21.5393 18.6675 7.17701 3 
22.9778 17.2289 5.7306 3 
22.9828 20.0931 5.7145 3 
24.4079 18.6699 7.16671 3 
27.2788 18.6704 4.29304 3 
28.7119 20.1081 5.73035 3 
25.8442 17.2339 5.73021 3 
27.277 18.672 7.16639 3 
25.8428 20.1052 5.72742 3 
1.4353 21.5443 4.29513 3 
1.43494 24.4158 4.29537 3 
1.43471 21.5444 7.16673 3 
2.87042 22.9802 5.73115 3 
1.43439 24.4153 7.1669 3 
4.30603 21.5446 4.2955 3 
4.30567 24.4161 4.29519 3 
7.17617 21.5444 4.29458 3 
7.17551 24.4169 4.2935 3 
4.30637 21.5452 7.167 3 
7.17798 21.546 7.16699 3 
5.7417 22.9808 5.73084 3 
7.17752 24.4173 7.16603 3 
4.30606 24.4161 7.16678 3 
10.0432 21.5421 4.29051 3 
10.0413 24.4183 4.28741 3 
10.0482 21.5463 7.16625 3 
8.61181 22.9814 5.72913 3 
11.4757 22.9805 5.72176 3 
10.0478 24.4209 7.1623 3 
12.9018 21.5297 4.27499 3 
15.7962 21.5498 4.28644 3 
12.8926 24.4174 4.26374 3 
15.7805 24.426 4.25997 3 
12.908 21.5348 7.15743 3 
15.8278 21.5813 7.18013 5 
14.3048 22.9479 5.68588 3 
12.9091 24.4384 7.13597 3 
15.6404 24.5663 6.76482 5 
18.6725 21.5342 4.25981 3 
18.6568 24.4104 4.28635 3 
18.8127 21.3941 6.76496 5 
17.2266 22.9801 5.76835 5 
20.1483 23.0124 5.68567 3 
18.6254 24.3789 7.18009 5 
21.5605 21.5428 4.26343 3 
24.4117 21.542 4.2871 3 
24.4097 24.4182 4.29016 3 
21.5512 24.4306 4.2747 3 
21.5441 21.5219 7.13571 3 
22.9774 22.9798 5.72142 3 
24.4047 24.4141 7.16596 3 
24.4052 21.5394 7.16199 3 
21.5451 24.4255 7.15717 3 
28.7112 22.9796 5.73067 3 
27.2774 21.5435 4.29331 3 
27.2768 24.416 4.29432 3 
27.2753 21.5431 7.16579 3 
25.8411 22.979 5.72883 3 
27.2748 24.4144 7.16674 3 
1.43472 27.2871 4.29571 3 
1.43442 27.2865 7.16704 3 
2.87013 25.8514 5.73124 3 
4.30513 27.2878 4.29524 3 
7.1742 27.2899 4.2932 3 
4.30547 27.2871 7.16693 3 
5.74099 25.8523 5.73049 3 
7.17589 27.2883 7.16664 3 
10.0378 27.2974 4.28581 3 
8.61011 25.8551 5.72771 3 
10.0451 27.2903 7.16701 3 
11.4702 25.8671 5.71481 3 
12.8785 27.3279 4.252 3 
15.7891 27.314 4.26366 3 
12.9138 27.2927 7.17729 3 
14.2571 25.9494 5.62761 3 
15.7682 27.2975 7.13593 3 
18.6768 27.3048 4.27478 3 
17.2587 25.9018 5.68579 3 
18.6718 27.2986 7.1573 3 
20.0903 25.8439 5.72916 3 
21.5332 27.2869 4.29199 3 
24.4073 27.2896 4.29303 3 
21.5285 27.2822 7.16711 3 
22.974 25.856 5.72652 3 
24.4049 27.2873 7.16669 3 
28.7111 25.851 5.73127 3 
27.2765 27.2876 4.29524 3 
25.8409 25.8515 5.73057 3 
27.2754 27.2865 7.16698 3 
2.86963 2.88192 8.60263 3 
2.86984 0.01036 8.60259 3 
1.43436 1.44595 10.038 3 
2.86957 2.88211 11.4735 3 
2.86975 0.0106444 11.4737 3 
5.73975 2.88321 8.60269 3 
5.74032 0.0113056 8.60266 3 
4.30487 1.44668 10.0382 3 
7.17452 1.44842 10.0384 3 
5.73958 2.88345 11.4739 3 
5.74 0.01176 11.4742 3 
8.60937 2.88526 8.60275 3 
11.4812 2.88499 8.60274 3 
8.60957 0.0133357 8.60271 3 
11.4765 0.0180004 8.6027 3 
10.0431 1.45152 10.0386 3 
8.60905 2.88561 11.4744 3 
11.4804 2.88573 11.4749 3 
11.4754 0.019217 11.4744 3 
8.60887 0.0142561 11.4748 3 
14.3537 2.88204 8.60269 3 
12.9162 1.44939 10.0384 3 
15.7857 1.44674 10.043 3 
14.3516 2.88442 11.4776 3 
14.3395 0.0242639 11.4905 3 
14.3547 0.0086158 8.60265 3 
17.2232 2.88006 8.6026 3 
20.0965 2.8812 8.60254 3 
20.0984 0.0119034 8.6025 3 
17.2171 0.012025 8.60257 3 
17.2262 0.0189013 11.4835 3 
20.1023 0.0156207 11.4784 3 
18.6604 1.44627 10.039 3 
17.2253 2.88269 11.4762 3 
20.0978 2.88243 11.4744 3 
22.9686 2.8814 8.60248 3 
22.9666 0.00824337 8.60245 3 
22.9678 0.00946875 11.4742 3 
21.5336 1.44645 10.0382 3 
22.9692 2.88194 11.4738 3 
24.4035 1.4451 10.038 3 
28.7109 2.88137 8.60256 3 
25.8394 2.88094 8.60247 3 
25.8398 0.0102589 8.60246 3 
25.8403 0.0108206 11.4738 3 
28.7109 2.88156 11.4734 3 
27.2754 1.44582 10.0379 3 
25.8397 2.88125 11.4735 3 
28.7109 0.0101183 8.60254 3 
28.711 0.0104273 11.4736 3 
2.86977 5.75317 8.60267 3 
1.4343 4.31722 10.038 3 
1.43463 7.18819 10.038 3 
2.86972 5.75326 11.4734 3 
5.74029 5.7543 8.60274 3 
4.30478 4.31821 10.0381 3 
4.30534 7.18914 10.0381 3 
7.17497 4.3197 10.0383 3 
7.17632 7.18987 10.0382 3 
5.74019 5.75441 11.4736 3 
8.61139 5.75493 8.60277 3 
11.4833 5.75432 8.60278 3 
10.0462 4.32012 10.0385 3 
10.0479 7.18983 10.0383 3 
8.61118 5.75511 11.4739 3 
11.4829 5.75464 11.4743 3 
14.3548 5.75305 8.60275 3 
12.9184 4.31868 10.0388 3 
15.7894 4.31698 10.0393 3 
12.9196 7.18918 10.0384 3 
15.7907 7.18847 10.0385 3 
14.3544 5.75361 11.4748 3 
17.2254 5.7521 8.60267 3 
20.0968 5.75219 8.60258 3 
18.6607 4.31644 10.0383 3 
18.6616 7.18807 10.0383 3 
17.226 5.75283 11.4744 3 
20.0973 5.75262 11.4738 3 
22.9685 5.75242 8.60252 3 
21.5328 4.317 10.038 3 
21.5329 7.18795 10.038 3 
22.9689 5.75262 11.4735 3 
24.4043 4.31688 10.0379 3 
24.4044 7.18784 10.0379 3 
28.7109 5.75242 8.60258 3 
28.711 5.7525 11.4733 3 
25.8399 5.7523 8.60251 3 
27.2752 4.31672 10.0379 3 
27.2757 7.18776 10.0379 3 
25.8401 5.75241 11.4734 3 
2.87042 8.62402 8.60267 3 
2.87106 11.4949 8.60266 3 
0.000610417 11.4938 8.60256 3 
1.43542 10.0589 10.038 3 
2.87036 8.62403 11.4734 3 
2.871 11.4948 11.4734 3 
0.000641989 11.4937 11.4735 3 
5.74126 8.62482 8.60276 3 
5.74188 11.4957 8.60276 3 
4.30612 10.0599 10.038 3 
7.17716 10.0603 10.0381 3 
5.74115 8.62485 11.4735 3 
5.74175 11.4956 11.4734 3 
8.61259 8.62506 8.60279 3 
11.4842 8.62486 8.60279 3 
8.61301 11.4958 8.6028 3 
11.4845 11.4958 8.60275 3 
11.484 8.62491 11.4738 3 
10.0486 10.0603 10.0382 3 
8.6124 8.62511 11.4736 3 
8.61283 11.4958 11.4735 3 
11.4842 11.4956 11.4736 3 
14.3557 8.62449 8.60275 3 
14.3563 11.496 8.6027 3 
12.9202 10.0603 10.0382 3 
15.7916 10.0602 10.0383 3 
14.3555 8.62457 11.474 3 
14.3559 11.4957 11.4738 3 
17.2265 8.62411 8.60267 3 
20.0974 8.62372 8.60258 3 
17.2277 11.4961 8.60264 3 
20.0983 11.4951 8.60256 3 
18.6625 10.0598 10.0384 3 
17.2266 8.62417 11.474 3 
20.0978 8.62375 11.4739 3 
17.2273 11.4955 11.4744 3 
20.0988 11.4947 11.4746 3 
22.9688 8.62336 8.60254 3 
22.9698 11.4939 8.60249 3 
21.5336 10.0591 10.0382 3 
22.9691 8.62332 11.4736 3 
22.9703 11.4936 11.474 3 
24.4051 10.0584 10.038 3 
28.7116 8.62325 8.60258 3 
25.8404 8.62307 8.60251 3 
25.8416 11.4933 8.60248 3 
28.7116 8.62325 11.4734 3 
27.2766 10.0583 10.038 3 
25.8405 8.62304 11.4734 3 
25.8418 11.4931 11.4737 3 
2.87118 14.3663 8.60262 3 
1.43602 12.93 10.038 3 
1.43588 15.8016 10.0381 3 
2.87112 14.3661 11.4735 3 
0.00116411 14.365 8.60252 3 
0.00123743 14.3648 11.4737 3 
5.74193 14.3668 8.60271 3 
4.30643 12.9309 10.038 3 
4.30632 15.8023 10.038 3 
7.17754 12.9314 10.0381 3 
7.17735 15.8025 10.038 3 
5.74175 14.3667 11.4734 3 
8.61341 14.3673 8.60274 3 
11.4844 14.3669 8.6027 3 
10.0487 12.9313 10.0381 3 
10.0494 15.8032 10.0381 3 
8.61312 14.367 11.4735 3 
11.4838 14.3664 11.4737 3 
14.3566 14.3671 8.60265 3 
12.9202 12.9313 10.0381 3 
15.7925 12.9318 10.0383 3 
12.9195 15.8019 10.0383 3 
15.7929 15.802 10.039 3 
14.3554 14.3659 11.4744 3 
17.23 14.3682 8.60258 3 
20.0995 14.3662 8.60251 3 
18.6638 12.9313 10.0392 3 
18.6675 15.8015 10.0429 3 
17.228 14.3656 11.4761 3 
20.1017 14.3639 11.4774 3 
22.9719 14.3632 8.60243 3 
21.5348 12.9295 10.0385 3 
21.537 15.7989 10.0381 3 
22.9728 14.3625 11.4747 3 
24.41 15.7967 10.0384 3 
24.4069 12.9281 10.0382 3 
25.8437 14.363 8.60245 3 
27.278 12.9285 10.0381 3 
27.2784 15.7998 10.0382 3 
25.844 14.3626 11.4742 3 
2.8709 17.238 8.60261 3 
2.8706 20.1094 8.60261 3 
1.43523 18.6733 10.0383 3 
2.87085 17.2377 11.4737 3 
2.87054 20.1091 11.4739 3 
0.000520666 17.237 8.6025 3 
0.000745278 17.2365 11.4741 3 
5.74182 17.2383 8.60268 3 
5.74213 20.11 8.60266 3 
4.30626 18.6739 10.0381 3 
7.17731 18.6739 10.0381 3 
5.74156 17.2379 11.4735 3 
5.74166 20.1094 11.4738 3 
8.61298 17.2381 8.60269 3 
11.4864 17.2401 8.60264 3 
8.61323 20.1102 8.60267 3 
11.4827 20.1083 8.60263 3 
10.0481 18.6731 10.0383 3 
8.61246 17.2375 11.4737 3 
11.4852 17.2389 11.4741 3 
8.612 20.1089 11.4744 3 
11.479 20.1044 11.4784 3 
14.3548 17.2364 8.60259 3 
14.3725 20.126 8.60256 3 
12.9246 18.6782 10.0378 3 
15.7814 18.6617 10.0477 3 
14.3509 17.2327 11.4784 3 
14.3629 20.1164 11.4758 3 
17.2361 17.2362 8.6025 3 
20.0985 17.2396 8.60246 3 
17.2313 20.0059 8.60247 5 
20.047 20.1599 8.60244 5 
18.685 18.6628 10.0691 3 
17.2271 17.2294 11.4834 3 
20.1138 17.224 11.4903 3 
17.1945 20.0585 11.5192 3 
20.1962 20.0107 11.5777 3 
22.9766 17.2302 8.6024 3 
22.9672 20.1084 8.6024 3 
21.5393 18.6676 10.0278 3 
22.9778 17.229 11.4743 3 
22.9828 20.0932 11.4904 3 
24.4079 18.67 10.0381 3 
28.7113 20.1086 8.60252 3 
28.7117 20.1081 11.4747 3 
25.8434 17.2349 8.60243 3 
25.8405 20.1075 8.60244 3 
27.2769 18.6721 10.0386 3 
25.8441 17.234 11.4747 3 
25.8428 20.1053 11.4775 3 
2.87032 22.9802 8.60261 3 
1.43429 24.4153 10.0382 3 
1.43459 21.5444 10.0384 3 
2.87024 22.9802 11.474 3 
5.74231 22.9813 8.60266 3 
7.17748 24.4173 10.0393 3 
4.30598 24.416 10.0385 3 
4.30627 21.5452 10.0383 3 
7.17793 21.546 10.0383 3 
5.74155 22.9808 11.4744 3 
8.61441 22.9834 8.60268 3 
11.4826 22.9895 8.60266 3 
10.0478 24.4209 10.043 3 
10.0483 21.5463 10.0391 3 
8.61179 22.9814 11.4762 3 
11.4757 22.9804 11.4835 3 
14.2522 22.9847 8.60259 5 
15.6406 24.5663 10.4403 5 
12.9091 24.4384 10.0693 3 
14.3049 22.9479 11.5193 3 
15.8279 21.5814 10.0249 5 
12.9081 21.5348 10.0478 3 
16.4775 23.7291 8.6026 5 
17.976 22.231 8.60243 5 
20.201 22.9756 8.60244 5 
18.8127 21.3942 10.44 5 
20.1484 23.0124 11.5193 3 
17.2267 22.9802 11.4367 5 
18.6254 24.3789 10.0249 5 
22.9705 22.9708 8.60243 3 
21.5451 24.4255 10.0477 3 
21.5441 21.5219 10.0691 3 
24.4052 21.5394 10.0429 3 
22.9774 22.9799 11.4835 3 
24.4047 24.4141 10.0389 3 
28.7104 22.9791 8.60252 3 
28.711 22.9796 11.4744 3 
25.8384 22.9769 8.60245 3 
27.2753 21.5431 10.0392 3 
25.841 22.979 11.4762 3 
27.2748 24.4144 10.0382 3 
2.87006 25.851 8.60259 3 
2.86998 25.8513 11.4739 3 
1.43434 27.2865 10.0381 3 
5.74145 25.8518 8.60265 3 
7.17586 27.2882 10.0387 3 
4.30542 27.2871 10.0383 3 
5.7409 25.8523 11.4748 3 
8.61246 25.8528 8.6027 3 
11.4859 25.8518 8.60267 3 
10.0452 27.2903 10.0384 3 
8.61011 25.8551 11.4776 3 
11.4703 25.8671 11.4905 3 
14.4063 25.8004 8.60261 5 
12.9139 27.2927 10.028 3 
15.7683 27.2975 10.0693 3 
14.2572 25.9495 11.5777 3 
17.222 25.9544 8.60255 5 
20.0807 25.8343 8.60246 3 
20.0904 25.844 11.4759 3 
18.6719 27.2986 10.0477 3 
17.2589 25.9019 11.5193 3 
22.9703 25.8521 8.60242 3 
24.4048 27.2873 10.0382 3 
22.974 25.856 11.4784 3 
21.5285 27.2821 10.0378 3 
28.7106 25.8505 8.60253 3 
25.8396 25.8502 8.60245 3 
28.7109 25.851 11.4738 3 
25.8408 25.8515 11.4744 3 
27.2754 27.2865 10.038 3 
1.43443 1.44642 12.9091 3 
2.86965 0.0113444 14.3452 3 
1.43462 1.44713 15.7807 3 
2.86948 2.88263 14.3448 3 
4.30461 1.4472 12.9095 3 
7.17384 1.44926 12.9104 3 
5.73912 2.88408 14.3456 3 
4.30415 1.44793 15.7813 3 
7.17239 1.45055 15.784 3 
5.739 0.0127912 14.3466 3 
10.0415 1.45308 12.9123 3 
8.60552 0.0172341 14.3511 3 
11.4649 0.029754 14.365 3 
10.0385 1.45619 15.7904 3 
11.4774 2.88911 14.3511 3 
8.60798 2.8867 14.3473 3 
12.9093 1.45676 12.9195 3 
15.7884 1.45318 12.9179 3 
14.3524 2.88762 14.351 3 
12.9137 1.45631 15.7911 3 
15.7905 1.45436 15.7896 3 
14.3485 0.0269597 14.3632 3 
18.6646 1.4513 12.9148 3 
20.0999 2.88501 14.3482 3 
17.2271 2.88611 14.3497 3 
18.6652 1.45261 15.7879 3 
20.1048 0.0187119 14.3549 3 
17.2303 0.022878 14.359 3 
21.5359 1.44891 12.912 3 
22.9704 0.0121005 14.348 3 
22.9706 2.8834 14.3464 3 
21.5371 1.45044 15.7856 3 
24.4059 1.44768 15.7825 3 
24.4046 1.44625 12.9098 3 
28.7112 2.88213 14.3447 3 
27.2758 1.44643 12.9093 3 
27.2766 1.44736 15.7813 3 
25.8405 2.88209 14.3451 3 
28.7116 0.0112896 14.3452 3 
25.8417 0.0122626 14.3465 3 
1.43433 4.3175 12.9089 3 
1.43468 7.18827 12.9088 3 
1.43448 4.31797 15.7802 3 
1.43487 7.18845 15.78 3 
2.8697 5.7535 14.3444 3 
7.17461 4.32006 12.9097 3 
4.30465 4.31849 12.9092 3 
4.30526 7.18923 12.9089 3 
7.17605 7.18999 12.9092 3 
4.30516 7.1894 15.7801 3 
4.30442 4.31894 15.7806 3 
7.17397 4.32069 15.7819 3 
7.17563 7.19025 15.7806 3 
5.73993 5.75468 14.3449 3 
10.0454 4.32083 12.9105 3 
10.0474 7.19009 12.9095 3 
8.61055 5.75557 14.3456 3 
10.0441 4.32231 15.784 3 
10.0467 7.19057 15.7813 3 
11.4819 5.75567 14.3466 3 
12.9168 4.32043 12.9121 3 
15.7899 4.31905 12.9117 3 
12.919 7.18962 12.91 3 
15.7907 7.18901 12.91 3 
14.3543 5.7549 14.3467 3 
15.7905 4.32094 15.784 3 
12.9171 4.32189 15.7844 3 
12.9186 7.1902 15.7816 3 
15.7907 7.18967 15.7816 3 
18.6623 4.31837 12.9107 3 
18.6622 7.18857 12.9097 3 
18.6632 4.32011 15.7833 3 
18.6626 7.18915 15.7814 3 
17.2266 5.7542 14.3463 3 
20.0984 5.75371 14.3458 3 
24.4049 4.31741 12.9092 3 
21.5339 4.31801 12.9098 3 
21.5336 7.18823 12.9093 3 
24.4049 7.18797 12.9091 3 
21.535 4.31929 15.7824 3 
24.4057 4.31824 15.7813 3 
21.5342 7.18864 15.7811 3 
24.4056 7.18818 15.7807 3 
22.9697 5.75323 14.3452 3 
28.7112 5.75278 14.3444 3 
27.2755 4.31707 12.9089 3 
27.2759 7.18785 12.9088 3 
25.8406 5.75276 14.3447 3 
27.2761 4.31764 15.7804 3 
27.2764 7.188 15.7802 3 
1.43548 10.0589 12.9089 3 
0.000933536 11.4934 14.3448 3 
2.87103 11.4946 14.3444 3 
1.4357 10.0587 15.7801 3 
2.87038 8.62404 14.3443 3 
4.30603 10.0598 12.9088 3 
7.17689 10.0603 12.9089 3 
5.74094 8.62488 14.3444 3 
4.30597 10.0597 15.7799 3 
7.17652 10.0602 15.78 3 
5.74154 11.4954 14.3443 3 
10.0481 10.0603 12.9091 3 
11.4834 11.4951 14.345 3 
8.61233 11.4955 14.3445 3 
10.0475 10.0601 15.7805 3 
11.4833 8.62505 14.3451 3 
8.61192 8.62521 14.3447 3 
12.9196 10.0601 12.9094 3 
15.7911 10.0598 12.9097 3 
12.9189 10.0597 15.781 3 
15.7906 10.0593 15.7813 3 
14.3548 11.4947 14.3456 3 
14.355 8.62465 14.3454 3 
18.6626 10.0594 12.9099 3 
20.099 11.4934 14.3466 3 
18.6626 10.0588 15.7816 3 
17.2266 8.62421 14.3455 3 
20.0983 8.62374 14.3454 3 
17.2267 11.4942 14.3462 3 
21.5342 10.0587 12.9098 3 
24.4057 10.0581 12.9094 3 
22.9713 11.4926 14.3465 3 
22.9698 8.62324 14.3451 3 
21.5346 10.0581 15.7816 3 
24.4064 10.0577 15.7814 3 
25.8425 11.4926 14.3455 3 
27.2768 10.0581 12.9091 3 
25.8411 8.623 14.3447 3 
28.7119 8.62325 14.3444 3 
27.2773 10.0579 15.7806 3 
1.43611 12.9297 12.9091 3 
1.43609 15.801 12.9094 3 
2.87121 14.3656 14.3447 3 
0.00171682 14.3641 14.3456 3 
1.43641 12.9292 15.7806 3 
1.43662 15.8002 15.7813 3 
4.30635 12.9307 12.9088 3 
4.30619 15.8019 12.909 3 
7.17722 12.9312 12.9088 3 
7.17686 15.8019 12.9091 3 
5.74147 14.3661 14.3445 3 
4.30608 15.8011 15.7805 3 
4.30629 12.9302 15.78 3 
7.17675 12.9306 15.7801 3 
7.17612 15.8009 15.7809 3 
10.0481 12.9309 12.9091 3 
10.0483 15.8021 12.9096 3 
11.4824 14.365 14.3461 3 
8.61234 14.3662 14.3448 3 
10.0472 12.9301 15.7809 3 
10.0469 15.8007 15.7821 3 
14.3533 14.3634 14.348 3 
12.9192 12.9304 12.9097 3 
15.7909 12.93 12.9106 3 
12.9172 15.7995 12.9118 3 
15.7887 15.797 12.9147 3 
12.9181 12.9291 15.7821 3 
15.79 12.9283 15.7831 3 
12.916 15.798 15.7853 3 
15.788 15.7957 15.7877 3 
18.6635 12.9293 12.9116 3 
18.6649 15.7951 12.9177 3 
18.6628 12.9274 15.7839 3 
18.6629 15.7939 15.7895 3 
17.2262 14.3622 14.3495 3 
20.101 14.3607 14.3509 3 
21.5365 12.9278 12.9119 3 
21.544 15.7915 12.9193 3 
24.4077 12.9274 12.9104 3 
24.4116 15.7952 12.9122 3 
22.9758 14.3591 14.3511 3 
21.5362 12.9264 15.7845 3 
21.5396 15.7919 15.7912 3 
24.409 12.9259 15.7841 3 
24.4147 15.792 15.7905 3 
27.2783 12.9281 12.9096 3 
27.2791 15.799 12.9104 3 
25.8451 14.3615 14.3473 3 
27.279 12.9274 15.7819 3 
27.2806 15.7976 15.7841 3 
2.8706 20.1085 14.3455 3 
1.4356 18.6726 12.9099 3 
2.87098 17.2369 14.3451 3 
1.43621 18.6721 15.7817 3 
0.00176582 17.2354 14.3466 3 
0.000987081 20.1079 14.3468 3 
4.30599 18.6732 12.9094 3 
7.17633 18.6728 12.9097 3 
5.74104 17.237 14.345 3 
4.30568 18.6725 15.781 3 
7.17513 18.6717 15.7821 3 
5.74064 20.1084 14.3457 3 
11.4826 17.2363 14.3477 3 
10.0456 18.6708 12.9118 3 
11.476 20.1018 14.3547 3 
8.60948 20.1067 14.348 3 
10.0442 18.6695 15.7853 3 
8.61104 17.2361 14.3462 3 
14.3484 17.2297 14.3547 3 
12.9199 18.6734 12.9129 3 
15.7763 18.6555 12.9302 3 
12.9177 18.6713 15.7859 3 
15.7881 18.6681 15.7889 3 
14.3548 20.1083 14.3528 3 
20.1048 17.2213 14.3631 3 
18.664 18.6463 12.9414 3 
17.2244 20.1001 14.3569 3 
17.223 17.2254 14.3589 3 
18.6643 18.6659 15.7905 3 
20.1116 20.0953 14.3624 3 
21.5746 18.6323 12.9532 3 
24.4152 18.6629 12.9194 3 
22.9855 20.1021 14.3632 3 
21.5435 18.6633 15.7939 3 
24.4148 18.6673 15.7913 3 
22.9884 17.2185 14.3651 3 
27.2786 18.6705 12.912 3 
27.2801 18.6706 15.7846 3 
25.8475 17.231 14.3511 3 
25.8459 20.106 14.3511 3 
1.43506 21.5443 12.91 3 
1.43471 24.4158 12.9098 3 
1.43573 21.5443 15.7817 3 
1.43531 24.4162 15.7815 3 
2.87027 22.9802 14.3456 3 
0.000325655 22.9802 14.3464 3 
4.30547 24.4161 12.91 3 
4.30578 21.5446 12.9097 3 
7.17603 21.5444 12.9107 3 
7.17545 24.4168 12.9117 3 
4.30529 21.5442 15.7814 3 
4.30492 24.4161 15.7816 3 
7.17438 21.5434 15.7831 3 
7.17366 24.4162 15.7839 3 
5.74028 22.9802 14.3463 3 
10.0414 24.4182 12.9178 3 
10.0433 21.5421 12.9147 3 
11.4718 22.9763 14.3589 3 
8.60841 22.9795 14.3496 3 
10.042 21.5414 15.7877 3 
10.0403 24.4161 15.7894 3 
12.8927 24.4173 12.9415 3 
12.9019 21.5297 12.9302 3 
15.7964 21.5498 12.9187 3 
15.7807 24.426 12.9452 3 
12.9145 21.5414 15.7889 3 
15.7907 21.5441 15.7865 3 
12.9123 24.4176 15.7904 3 
15.7878 24.4188 15.7873 3 
14.3465 22.9777 14.3569 3 
18.657 24.4105 12.9187 3 
18.6727 21.5342 12.9452 3 
17.2267 22.9801 14.3503 3 
18.6655 21.5413 15.7873 3 
18.6626 24.416 15.7866 3 
20.1068 22.9825 14.357 3 
21.5513 24.4306 12.9303 3 
24.4116 21.5421 12.9179 3 
24.4097 24.4183 12.9149 3 
21.5605 21.5429 12.9415 3 
22.9813 22.9839 14.3591 3 
21.5409 21.5426 15.7906 3 
24.4128 21.5441 15.7897 3 
24.4109 24.4189 15.788 3 
21.5386 24.4188 15.7892 3 
27.2766 24.416 12.9108 3 
27.2773 21.5436 12.9118 3 
25.8444 22.9808 14.3498 3 
27.2791 21.5441 15.7841 3 
27.2783 24.4169 15.7834 3 
2.86995 25.8518 14.3455 3 
1.43455 27.2871 12.9094 3 
1.43495 27.2878 15.7812 3 
7.17416 27.2898 12.912 3 
4.305 27.2877 12.9099 3 
5.7397 25.8524 14.3467 3 
4.30448 27.2881 15.7817 3 
7.17275 27.2896 15.7844 3 
10.0378 27.2973 12.9194 3 
8.60697 25.8542 14.351 3 
10.0383 27.2929 15.7911 3 
11.4677 25.8581 14.3632 3 
12.8787 27.3279 12.9532 3 
15.7893 27.3139 12.9415 3 
12.9098 27.2968 15.7938 3 
15.789 27.2943 15.7905 3 
14.3417 25.8649 14.3625 3 
18.677 27.3048 12.9303 3 
17.229 25.8602 14.357 3 
18.6652 27.2922 15.7891 3 
20.0984 25.852 14.353 3 
22.977 25.8585 14.355 3 
21.5333 27.2869 12.9131 3 
24.4072 27.2896 12.912 3 
21.5354 27.2891 15.7863 3 
24.4087 27.2908 15.7857 3 
28.7119 25.852 14.3458 3 
27.2763 27.2876 12.9098 3 
27.2776 27.2887 15.7824 3 
25.8433 25.8536 14.3483 3 
1.43477 1.4476 18.6523 3 
2.86942 2.8832 17.2164 3 
2.86959 0.0118566 17.2168 3 
2.86947 2.88343 20.0877 3 
0.000122902 0.0119971 17.2171 3 
2.86961 0.0120359 20.088 3 
0.00011064 0.0120983 20.0883 3 
4.30405 1.4481 18.6528 3 