ITEM: TIMESTEP
70049
ITEM: NUMBER OF ATOMS
18
ITEM: BOX BOUNDS pp pp pp
0.0000000000000000e+00 2.8712000000000000e+01
0.0000000000000000e+00 2.8712000000000000e+01
0.0000000000000000e+00 2.8712000000000000e+01
ITEM: ATOMS x y z c_cna 
15.7964 24.4149 7.06328 5 
18.612 24.4149 7.21729 5 
14.3929 22.9925 8.63889 5 
15.0425 24.4149 10.7867 5 
12.8172 24.4148 10.0422 5 
14.2056 22.5774 11.6236 5 
15.7917 21.5808 10.0377 5 
16.5408 24.4148 9.28862 5 
17.3778 22.5773 8.45162 5 
17.1905 22.9926 11.4364 5 
18.7661 24.4149 10.033 5 
14.3929 25.8372 8.63885 5 
15.7916 27.249 10.0376 5 
14.2055 26.2524 11.6236 5 
17.3778 26.2525 8.45149 5 
17.1904 25.8373 11.4364 5 
12.9711 24.4149 12.8578 5 
15.787 24.415 13.012 5 
ITEM: TIMESTEP
70050
ITEM: NUMBER OF ATOMS
18
ITEM: BOX BOUNDS pp pp pp
0.0000000000000000e+00 2.8712000000000000e+01
0.0000000000000000e+00 2.8712000000000000e+01
0.0000000000000000e+00 2.8712000000000000e+01
ITEM: ATOMS x y z c_cna 
15.7964 24.4149 7.06328 5 
18.612 24.4149 7.21729 5 
14.3929 22.9925 8.63889 5 
15.0425 24.4149 10.7867 5 
12.8172 24.4148 10.0422 5 
14.2056 22.5774 11.6236 5 
15.7917 21.5808 10.0377 5 
16.5408 24.4148 9.28862 5 
17.3778 22.5773 8.45162 5 
17.1905 22.9926 11.4364 5 
18.7661 24.4149 10.033 5 
14.3929 25.8372 8.63885 5 
15.7916 27.249 10.0376 5 
14.2055 26.2524 11.6236 5 
17.3778 26.2525 8.45149 5 
17.1904 25.8373 11.4364 5 
12.9711 24.4149 12.8578 5 
15.787 24.415 13.012 5 
