ITEM: TIMESTEP
70049
ITEM: NUMBER OF ATOMS
2001
ITEM: BOX BOUNDS pp pp pp
0.0000000000000000e+00 2.8712000000000000e+01
0.0000000000000000e+00 2.8712000000000000e+01
0.0000000000000000e+00 2.8712000000000000e+01
ITEM: ATOMS x y z c_cna 
1.43657 1.44512 1.42289 3 
2.87143 2.88095 2.85846 3 
2.8716 0.00936662 2.85902 3 
0.00190792 2.88167 2.85759 3 
0.00144618 0.00977126 2.85821 3 
4.30687 1.44501 1.42345 3 
7.17769 1.44546 1.42362 3 
5.74144 2.88149 2.85832 3 
5.74227 0.0095153 2.85912 3 
10.0477 1.44674 1.42244 3 
8.61219 2.8827 2.85817 3 
11.4811 2.88585 2.8555 3 
11.4823 0.0121959 2.8569 3 
8.61357 0.0100739 2.85947 3 
12.9183 1.44844 1.42084 3 
15.791 1.44996 1.41958 3 
14.3529 2.88811 2.85321 3 
14.3536 0.0150297 2.85445 3 
18.6657 1.45131 1.41794 3 
17.2276 2.88982 2.85128 3 
20.1044 2.89149 2.84923 3 
17.2297 0.0181039 2.8524 3 
20.1088 0.0197207 2.84867 3 
22.9796 2.8907 2.84925 3 
24.4101 1.44775 1.41876 3 
21.5406 1.45148 1.41635 3 
22.9765 0.0126126 2.85228 3 
27.279 1.44594 1.42142 3 
25.8457 2.88436 2.85497 3 
25.8442 0.0107622 2.85613 3 
1.43667 4.3168 1.42245 3 
1.43663 7.1882 1.42232 3 
2.87128 5.75262 2.8581 3 
0.00200453 5.75321 2.85755 3 
4.30649 4.31671 1.42295 3 
7.1769 4.31742 1.42294 3 
4.30633 7.18819 1.42273 3 
7.1768 7.18862 1.4229 3 
5.74112 5.75322 2.85802 3 
10.047 4.31907 1.42178 3 
10.0477 7.18932 1.42251 3 
8.61201 5.75404 2.85807 3 
11.4829 5.7552 2.85729 3 
12.9182 4.3204 1.42049 3 
15.7907 4.32134 1.41934 3 
12.9192 7.1898 1.42197 3 
15.7913 7.19009 1.42132 3 
14.3549 5.75584 2.85647 3 
18.6643 4.32212 1.41816 3 
18.6638 7.19033 1.4206 3 
17.2277 5.75637 2.85553 3 
20.1012 5.757 2.8546 3 
24.411 4.32137 1.41805 3 
21.5384 4.32257 1.41729 3 
21.5366 7.19051 1.42014 3 
22.9745 5.75707 2.85446 3 
24.4088 7.1902 1.42031 3 
27.2795 4.31824 1.42091 3 
27.2792 7.18911 1.42139 3 
25.845 5.75528 2.85608 3 
1.4366 10.059 1.42228 3 
2.87129 8.62375 2.85804 3 
2.87129 11.4945 2.858 3 
0.00181277 11.4941 2.85764 3 
0.00177342 8.62394 2.85768 3 
4.30637 10.0591 1.42271 3 
7.17686 10.0592 1.42295 3 
5.74135 8.62394 2.85822 3 
5.74135 11.4943 2.85817 3 
10.048 10.0591 1.42282 3 
8.6123 8.62423 2.85839 3 
11.4837 8.62444 2.85827 3 
8.61232 11.4941 2.85834 3 
11.4837 11.4938 2.85819 3 
12.9196 10.0591 1.4225 3 
15.7915 10.0591 1.42204 3 
14.3556 8.62455 2.85786 3 
14.3556 11.4937 2.85787 3 
18.6638 10.059 1.42148 3 
17.2277 8.6246 2.85731 3 
20.1001 8.6247 2.85679 3 
17.2278 11.4935 2.85735 3 
20.1002 11.4933 2.8568 3 
21.5361 10.059 1.42109 3 
22.9724 8.62475 2.85662 3 
22.9724 11.4932 2.85664 3 
24.408 10.059 1.42115 3 
27.2788 10.059 1.42166 3 
25.8438 8.62445 2.85708 3 
25.8438 11.4935 2.85705 3 
1.43664 12.9299 1.42221 3 
1.43664 15.8012 1.4223 3 
2.87129 14.3655 2.85796 3 
0.00200524 14.3648 2.85746 3 
4.30644 15.8014 1.4227 3 
4.30631 12.93 1.42261 3 
7.17679 12.9296 1.42275 3 
7.17689 15.8007 1.42267 3 
5.74111 14.3649 2.85787 3 
10.0477 12.9289 1.42239 3 
10.047 15.7991 1.42152 3 
8.61203 14.3641 2.8579 3 
11.4829 14.363 2.85719 3 
12.9193 12.9284 1.42187 3 
15.7914 12.928 1.42128 3 
12.9183 15.7977 1.42032 3 
15.7909 15.7967 1.41927 3 
14.355 14.3623 2.85642 3 
18.6639 12.9276 1.4206 3 
18.6645 15.7958 1.41816 3 
17.2278 14.3616 2.85556 3 
20.1013 14.3609 2.85464 3 
21.5367 12.9274 1.4201 3 
21.5386 15.7952 1.41726 3 
22.9746 14.3608 2.85446 3 
24.411 15.7964 1.41794 3 
24.4088 12.9277 1.42025 3 
27.2792 12.9289 1.4213 3 
27.2796 15.7997 1.42075 3 
25.8451 14.3626 2.85605 3 
1.43655 18.6729 1.42271 3 
2.8714 17.237 2.85828 3 
2.87159 20.1085 2.85884 3 
0.00185562 17.2363 2.8575 3 
0.00136752 20.1081 2.8581 3 
4.30685 18.673 1.42319 3 
7.17768 18.6726 1.42328 3 
5.74147 17.2365 2.85807 3 
5.74227 20.1084 2.85886 3 
10.0477 18.6713 1.42213 3 
8.61219 17.2353 2.8579 3 
11.4812 17.2322 2.85526 3 
8.6136 20.1079 2.85915 3 
11.4824 20.1056 2.8567 3 
12.9184 18.6695 1.42063 3 
15.7912 18.6679 1.4195 3 
14.3531 17.2298 2.85312 3 
14.3538 20.1028 2.85431 3 
18.6659 18.6665 1.41789 3 
17.2278 17.2281 2.85129 3 
20.1046 17.2264 2.84921 3 
17.2299 20.0997 2.85235 3 
20.109 20.0981 2.84868 3 
21.5408 18.6664 1.41631 3 
24.4102 18.6701 1.41868 3 
22.9797 17.2271 2.84927 3 
22.9766 20.1052 2.85224 3 
27.2789 18.6719 1.4213 3 
25.8457 17.2334 2.85487 3 
25.8442 20.1071 2.85607 3 
1.43645 21.5441 1.42312 3 
2.87172 22.9795 2.85926 3 
1.43644 24.4149 1.42333 3 
0.00113062 22.9794 2.85856 3 
4.30732 24.415 1.42391 3 
4.30719 21.5442 1.42367 3 
7.17853 21.5441 1.42404 3 
5.74278 22.9795 2.85947 3 
7.17881 24.415 1.42443 3 
10.0491 21.5438 1.42353 3 
8.61473 22.9795 2.86031 3 
11.4847 22.9792 2.85911 3 
10.0496 24.4149 1.42409 3 
12.9205 21.5431 1.42311 3 
15.793 21.5414 1.42283 3 
14.3579 22.9785 2.85932 3 
15.795 24.4149 1.42545 3 
12.9217 24.4149 1.4244 3 
18.6667 21.5399 1.42097 3 
17.2326 22.9745 2.85873 3 
20.102 22.9792 2.85595 3 
18.6644 24.4149 1.42333 3 
21.5379 21.5427 1.4196 3 
24.4091 21.5432 1.41968 3 
22.975 22.979 2.85377 3 
24.4087 24.415 1.42002 3 
21.5369 24.415 1.42028 3 
27.2784 21.5437 1.42183 3 
25.8435 22.9792 2.85682 3 
27.2783 24.415 1.42207 3 
1.43648 27.2859 1.42326 3 
2.87169 25.8503 2.85934 3 
0.001144 25.8504 2.85862 3 
4.30718 27.2858 1.42383 3 
7.17851 27.2859 1.42427 3 
5.74276 25.8503 2.85956 3 
10.049 27.2861 1.42374 3 
8.61472 25.8503 2.86044 3 
11.4846 25.8506 2.85922 3 
12.9204 27.2867 1.42328 3 
15.7929 27.2884 1.42295 3 
14.3579 25.8513 2.8594 3 
18.6665 27.2899 1.42103 3 
17.2325 25.8552 2.85877 3 
20.1019 25.8506 2.85598 3 
21.5377 27.2872 1.41964 3 
22.975 25.8509 2.85377 3 
24.409 27.2868 1.41973 3 
27.2785 27.2862 1.42192 3 
25.8435 25.8507 2.85689 3 
1.43635 1.44539 4.29415 3 
1.43597 1.44555 7.16566 3 
2.87098 2.88131 5.72969 3 
2.87138 0.00950595 5.73033 3 
0.00153652 2.88187 5.72938 3 
0.000983693 0.0100699 5.72972 3 
4.30639 1.44536 4.29427 3 
7.17633 1.44663 4.29344 3 
4.30591 1.44589 7.16554 3 
7.17463 1.44834 7.16404 3 
5.74035 2.88252 5.72896 3 
5.74162 0.00995637 5.73002 3 
10.0477 1.44813 4.29376 3 
10.041 1.45504 7.15923 3 
8.6093 2.8858 5.72697 3 
11.4827 2.88638 5.72877 3 
8.6108 0.0121275 5.7281 3 
11.4849 0.013197 5.73088 3 
12.9133 1.45505 4.28713 3 
15.7879 1.4592 4.28282 3 
12.9197 1.4531 7.16574 3 
15.7893 1.4572 7.15745 3 
14.353 2.88929 5.72556 3 
14.3412 0.0304396 5.71296 3 
18.6697 1.46342 4.27857 3 
18.6765 1.4627 7.15261 3 
17.2292 2.89074 5.72324 3 
20.1084 2.89414 5.7206 3 
17.2289 0.0417178 5.70367 3 
20.1395 0.0534674 5.68955 3 
21.5532 1.46533 4.27568 3 
24.4125 1.45136 4.28817 3 
21.5505 1.46343 7.1593 3 
22.9798 2.8914 5.72448 3 
22.9803 0.0196842 5.72007 3 
24.4111 1.4512 7.16317 3 
27.279 1.44682 4.29264 3 
27.2783 1.44686 7.16501 3 
25.8453 2.88468 5.72789 3 
25.8439 0.0122295 5.72753 3 
1.43643 4.3171 4.29374 3 
1.43642 7.18842 4.29361 3 
1.43599 4.31728 7.16544 3 
1.43601 7.18854 7.16535 3 
2.87084 5.75296 5.7294 3 
0.00170425 5.75334 5.72937 3 
7.1756 4.31894 4.29287 3 
7.17631 7.18927 4.29359 3 
4.30586 4.31732 4.29366 3 
4.3059 7.18863 4.2936 3 
4.30519 4.3179 7.16504 3 
7.17421 4.32032 7.164 3 
4.30534 7.18897 7.1651 3 
5.74028 5.75403 5.72896 3 
7.17565 7.18974 7.16503 3 
10.0472 4.31997 4.29325 3 
10.0478 7.18969 4.29385 3 
10.0455 4.32175 7.16377 3 
8.61108 5.75517 5.72879 3 
10.0474 7.18997 7.16539 3 
11.4833 5.7554 5.72936 3 
15.7917 7.19007 4.29303 3 
12.9179 4.32176 4.29172 3 
15.791 4.32257 4.29039 3 
12.9195 7.18998 4.29359 3 
12.9191 4.32127 7.16516 3 
15.7919 4.32096 7.16381 3 
12.9197 7.18973 7.16568 3 
14.3554 5.75557 5.72878 3 
15.7919 7.18944 7.16532 3 
18.6656 4.3238 4.28882 3 
18.6643 7.19031 4.29237 3 
18.6666 4.32209 7.16249 3 
17.2283 5.75569 5.72794 3 
18.6644 7.18961 7.16477 3 
20.1019 5.75664 5.72716 3 
21.541 4.325 4.28792 3 
21.5371 7.19074 4.29193 3 
24.4089 7.19045 4.29241 3 
24.4117 4.32247 4.29042 3 
21.5403 4.32375 7.16332 3 
24.4109 4.32198 7.16452 3 
21.5368 7.19026 7.1648 3 
22.9744 5.7569 5.72772 3 
24.4085 7.19023 7.16511 3 
27.2796 4.31869 4.29274 3 
27.2791 7.18933 4.29317 3 
27.279 4.3186 7.16519 3 
25.8448 5.75529 5.72872 3 
27.2787 7.18924 7.16537 3 
1.43637 10.0591 4.29364 3 
1.43597 10.0591 7.16537 3 
2.87092 8.62389 5.72944 3 
2.87091 11.4943 5.72943 3 
0.00149248 8.62397 5.72946 3 
0.00148681 11.4941 5.72945 3 
4.30607 10.0591 4.29372 3 
7.17663 10.0592 4.29391 3 
4.30561 10.0591 7.16529 3 
5.7409 8.62419 5.72939 3 
7.1762 10.0591 7.16543 3 
5.74092 11.4941 5.72942 3 
10.0481 10.0592 4.29415 3 
8.61201 8.62445 5.72966 3 
10.0479 10.0591 7.16578 3 
11.4838 8.62448 5.72995 3 
8.61203 11.4938 5.72967 3 
11.4839 11.4938 5.72995 3 
12.9198 10.0591 4.29408 3 
15.7918 10.0591 4.29373 3 
12.9199 10.0591 7.16595 3 
14.3559 8.6244 5.72978 3 
15.7919 10.059 7.16569 3 
14.3559 11.4938 5.72983 3 
18.664 10.059 4.29322 3 
17.228 8.62434 5.72931 3 
18.6639 10.059 7.16531 3 
20.1002 8.6245 5.72891 3 
17.228 11.4937 5.72939 3 
20.1002 11.4935 5.72899 3 
21.5362 10.059 4.29291 3 
24.408 10.059 4.29303 3 
21.5359 10.0589 7.16519 3 
22.9723 8.62466 5.72893 3 
22.9723 11.4932 5.72898 3 
24.4076 10.0589 7.16535 3 
27.2787 10.059 4.29339 3 
25.8435 8.62444 5.72923 3 
27.2783 10.059 7.16549 3 
25.8435 11.4935 5.72926 3 
1.43639 12.9297 4.2936 3 
1.43641 15.8009 4.29364 3 
1.43599 12.9296 7.1654 3 
1.43596 15.8008 7.16546 3 
2.87082 14.3651 5.7294 3 
0.00168528 14.3647 5.7294 3 
4.30587 12.9296 4.29358 3 
4.30587 15.8007 4.29354 3 
7.17632 12.929 4.29354 3 
7.17562 15.7991 4.29271 3 
4.30532 12.9292 7.16516 3 
4.30517 15.8001 7.16504 3 
7.17567 12.9285 7.16508 3 
5.74029 14.3641 5.72892 3 
7.17423 15.7978 7.16398 3 
10.0478 12.9286 4.29381 3 
10.0472 15.7981 4.2931 3 
10.0474 12.9282 7.1654 3 
8.61109 14.363 5.72876 3 
10.0456 15.7963 7.16378 3 
11.4834 14.3627 5.72936 3 
12.9195 12.9282 4.29354 3 
15.7917 12.9281 4.29311 3 
12.918 15.7963 4.29166 3 
15.7911 15.7954 4.29044 3 
12.9197 12.9284 7.16577 3 
15.792 12.9286 7.16544 3 
12.9192 15.7968 7.16522 3 
14.3555 14.3625 5.72884 3 
15.792 15.797 7.16398 3 
18.6644 12.9277 4.29243 3 
18.6658 15.7941 4.28891 3 
18.6644 12.9283 7.16496 3 
17.2284 14.3623 5.7281 3 
18.6667 15.7958 7.16265 3 
20.102 14.3613 5.7273 3 
21.5371 12.9272 4.29202 3 
21.5411 15.7928 4.28802 3 
24.4089 12.9274 4.29243 3 
24.4117 15.7953 4.29048 3 
21.5368 12.9276 7.16495 3 
21.5403 15.7941 7.16353 3 
22.9744 14.3609 5.72787 3 
24.4085 12.9277 7.16523 3 
24.4109 15.7958 7.16469 3 
27.2791 12.9286 4.29317 3 
27.2795 15.7992 4.2927 3 
27.2787 12.9287 7.16544 3 
25.8448 14.3626 5.7288 3 
27.279 15.7993 7.16528 3 
1.43631 18.6725 4.29401 3 
1.43592 18.6723 7.16562 3 
2.87098 17.2366 5.7296 3 
2.87136 20.1083 5.73024 3 
0.00145298 17.236 5.72934 3 
0.000910286 20.1077 5.72966 3 
4.30639 18.6725 4.29406 3 
7.17639 18.6713 4.29317 3 
4.30594 18.672 7.16545 3 
5.74041 17.2355 5.72881 3 
7.17469 18.6696 7.16395 3 
5.74169 20.1079 5.72985 3 
10.0478 18.6698 4.29354 3 
8.60935 17.2322 5.72681 3 
10.041 18.6628 7.15918 3 
11.4828 17.2316 5.72869 3 
8.61085 20.1057 5.72792 3 
11.4849 20.1046 5.73078 3 
12.9135 18.6628 4.28701 3 
15.7881 18.6587 4.28277 3 
12.9198 18.6648 7.16575 3 
14.3531 17.2287 5.72558 3 
15.7894 18.6607 7.15751 3 
14.3413 20.0873 5.71289 3 
18.6698 18.6544 4.27859 3 
17.2293 17.2272 5.72335 3 
18.6767 18.6552 7.15272 3 
20.1085 17.2237 5.72075 3 
17.2291 20.0761 5.70367 3 
20.1396 20.0644 5.68961 3 
21.5534 18.6525 4.2757 3 
24.4125 18.6664 4.28812 3 
21.5506 18.6544 7.15943 3 
22.9798 17.2264 5.72459 3 
22.9803 20.0982 5.7201 3 
24.4111 18.6666 7.16325 3 
27.279 18.671 4.29258 3 
25.8452 17.2331 5.7279 3 
27.2782 18.671 7.16503 3 
25.8438 20.1056 5.72753 3 
1.43622 21.5439 4.29459 3 
1.43618 24.4149 4.29491 3 
1.43588 21.5437 7.16608 3 
2.87162 22.9794 5.73082 3 
1.43588 24.4148 7.16635 3 
0.000516835 22.9792 5.73024 3 
4.30698 21.544 4.29486 3 
4.30716 24.4149 4.29522 3 
7.17781 21.5438 4.29455 3 
7.17832 24.4149 4.29518 3 
4.30698 21.5438 7.16649 3 
7.17723 21.5431 7.16604 3 
5.74264 22.9794 5.73092 3 
7.17842 24.4148 7.16732 3 
4.30741 24.4148 7.167 3 
10.0504 21.5433 4.29609 3 
10.0441 21.5391 7.16171 3 
8.61329 22.9792 5.7303 3 
11.4897 22.9796 5.73557 3 
10.0478 24.4148 7.16563 3 
10.0516 24.4149 4.29737 3 
12.916 21.5391 4.29002 3 
15.7922 21.534 4.28672 3 
15.8012 24.4148 4.2936 3 
12.9279 21.5417 7.17381 3 
15.7595 21.4982 7.11587 3 
14.3465 22.9697 5.71911 3 
12.9376 24.4148 7.1835 3 
15.7964 24.4149 7.06328 5 
12.9198 24.4148 4.29378 3 
18.6789 21.5271 4.2812 3 
18.6635 24.4149 4.29684 3 
18.7613 21.4399 7.06806 3 
17.2501 22.9482 5.72009 3 
20.1044 22.9895 5.72476 3 
18.612 24.4149 7.21729 5 
24.4092 21.5427 4.29103 3 
21.5429 21.5431 4.28613 3 
24.4085 24.4149 4.29194 3 
21.548 21.5271 7.1504 3 
22.973 22.9793 5.727 3 
24.4056 24.4149 7.16455 3 
24.408 21.54 7.16235 3 
21.5417 24.4149 4.28729 3 
21.5323 24.4149 7.16562 3 
27.278 21.5434 4.29355 3 
27.2777 24.4149 4.29397 3 
27.277 21.5429 7.16518 3 
25.8421 22.9789 5.7291 3 
27.2765 24.4149 7.1656 3 
1.43626 27.2859 4.2947 3 
1.4359 27.286 7.16613 3 
2.87161 25.8503 5.73089 3 
0.000538796 25.8505 5.73027 3 
4.30696 27.2857 4.29497 3 
7.17779 27.286 4.29475 3 
4.30696 27.2859 7.16653 3 
5.74262 25.8503 5.73098 3 
7.17714 27.2866 7.16611 3 
10.0504 27.2864 4.29625 3 
8.61323 25.8505 5.73036 3 
10.044 27.2906 7.16173 3 
11.4897 25.8501 5.73564 3 
12.9159 27.2906 4.29016 3 
15.792 27.2957 4.28676 3 
12.9278 27.288 7.17384 3 
14.3464 25.8599 5.7191 3 
15.7594 27.3314 7.11585 3 
18.6787 27.3027 4.28119 3 
17.2501 25.8815 5.72006 3 
18.7612 27.39 7.06802 3 
20.1044 25.8402 5.72476 3 
21.5428 27.2867 4.28614 3 
24.4092 27.2871 4.29106 3 
21.5479 27.3027 7.15031 3 
22.973 25.8506 5.72703 3 
24.408 27.2898 7.16234 3 
27.278 27.2864 4.29359 3 
25.8421 25.8509 5.7291 3 
27.2771 27.2869 7.16513 3 
2.87055 2.88161 8.60132 3 
0.00103233 2.8818 8.6014 3 
1.43559 1.44567 10.0373 3 
2.8701 2.88189 11.4733 3 
2.87072 0.0101972 11.4733 3 
8.11457e-05 0.00998921 11.473 3 
0.000578973 2.88166 11.4733 3 
2.87109 0.00983476 8.60175 3 
0.000429329 0.0101055 8.60139 3 
5.73948 2.88344 8.60064 3 
4.30543 1.44652 10.0374 3 
7.17341 1.44992 10.0368 3 
5.73865 2.88429 11.4734 3 
5.74119 0.0108601 8.60162 3 
5.74048 0.0120176 11.4741 3 
8.60699 2.8881 8.59873 3 
11.4794 2.88935 8.59885 3 
10.0367 1.45929 10.0337 3 
8.60516 2.88988 11.4734 3 
11.4772 2.89092 11.4749 3 
11.4576 0.0418574 11.4747 3 
8.60825 0.01501 8.5994 3 
11.4668 0.0304709 8.58709 3 
8.6063 0.0181957 11.4755 3 
14.3556 2.88683 8.60158 3 
12.9114 1.45728 10.0351 3 
15.7916 1.4506 10.0375 3 
14.3527 2.88763 11.4762 3 
14.3456 0.0455696 11.4834 3 
14.3613 0.0188967 8.60723 3 
17.2304 2.88753 8.59868 3 
20.1059 2.89076 8.59986 3 
17.2376 0.0454317 8.5916 3 
17.2219 0.0190539 11.4678 3 
18.6717 1.45726 10.0398 3 
17.2275 2.88687 11.4734 3 
20.1037 2.88936 11.476 3 
20.1256 0.0417627 8.60018 3 
20.1164 0.0306426 11.4879 3 
22.9779 2.88977 8.60128 3 
22.9768 0.0181258 8.59924 3 
22.9749 0.0151717 11.4754 3 
21.5464 1.45929 10.0411 3 
22.9762 2.88811 11.476 3 
24.4097 1.44991 10.0379 3 
25.8444 2.88416 8.60127 3 
25.8426 0.0119294 8.60062 3 
25.842 0.01101 11.4732 3 
27.2777 1.44651 10.0373 3 
25.8436 2.88349 11.474 3 
2.87033 5.75319 8.60117 3 
0.00125996 5.7533 8.60143 3 
1.43556 4.3173 10.0373 3 
1.43552 7.18852 10.0373 3 
2.86983 5.75332 11.4733 3 
0.00076891 5.75313 11.4735 3 
5.7395 5.75465 8.60075 3 
4.30458 4.31836 10.037 3 
4.30475 7.18919 10.0371 3 
7.17307 4.32129 10.0365 3 
7.17501 7.19005 10.0371 3 
5.73879 5.75507 11.4732 3 
8.61017 5.75582 8.60066 3 
11.4826 5.7556 8.60124 3 
10.0442 4.32267 10.0367 3 
10.0468 7.19011 10.0375 3 
8.60929 5.7564 11.4735 3 
11.4818 5.7558 11.474 3 
14.3556 5.75478 8.60151 3 
12.9178 4.32107 10.0377 3 
15.7916 4.31977 10.0375 3 
12.9193 7.18947 10.0378 3 
15.7916 7.18906 10.0375 3 
14.3548 5.75457 11.4741 3 
17.2283 5.75448 8.60079 3 
20.1012 5.75562 8.60076 3 
18.6653 4.32096 10.0372 3 
18.6639 7.18934 10.0372 3 
17.2276 5.75471 11.4734 3 
20.1005 5.75547 11.4737 3 
22.9737 5.75626 8.60126 3 
21.5389 4.32253 10.038 3 
21.5362 7.18994 10.0374 3 
22.9729 5.75569 11.4741 3 
24.4099 4.32119 10.0381 3 
24.408 7.18991 10.0376 3 
25.8442 5.75497 8.60148 3 
27.2785 4.31831 10.0376 3 
27.2783 7.18909 10.0376 3 
25.8436 5.75454 11.4739 3 
2.87042 8.62395 8.60124 3 
2.87041 11.4942 8.60127 3 
0.00105786 8.62394 8.60144 3 
0.00107874 11.4941 8.60147 3 
1.43549 10.059 10.0374 3 
2.86992 8.62395 11.4733 3 
2.86989 11.4941 11.4733 3 
0.000606933 11.4941 11.4735 3 
0.000620614 8.62383 11.4735 3 
5.74035 8.62433 8.60118 3 
5.74036 11.4939 8.60121 3 
4.30506 10.0591 10.0372 3 
7.1757 10.0591 10.0374 3 
5.73983 8.62442 11.4733 3 
5.73981 11.4937 11.4733 3 
8.61157 8.62453 8.60141 3 
11.4836 8.6244 8.60175 3 
8.61158 11.4937 8.60144 3 
11.4837 11.4938 8.60179 3 
11.4831 8.62438 11.4738 3 
10.0475 10.0591 10.0376 3 
8.61104 8.62461 11.4735 3 
8.61105 11.4935 11.4735 3 
11.4831 11.4937 11.4738 3 
14.3558 8.62417 8.60174 3 
14.3558 11.494 8.60183 3 
12.9196 10.0591 10.0378 3 
15.7916 10.059 10.0376 3 
14.3554 8.62405 11.4737 3 
14.3554 11.494 11.4738 3 
17.2278 8.62402 8.6014 3 
20.0999 8.62424 8.6012 3 
17.2279 11.4939 8.60148 3 
20.1 11.4936 8.60132 3 
18.6636 10.0589 10.0373 3 
17.2274 8.62406 11.4734 3 
20.0995 8.6242 11.4733 3 
17.2275 11.4938 11.4734 3 
20.0996 11.4936 11.4734 3 
22.9719 8.62448 8.60136 3 
22.9719 11.4934 8.60145 3 
21.5356 10.0589 10.0374 3 
22.9715 8.62432 11.4735 3 
22.9715 11.4935 11.4736 3 
24.4072 10.0589 10.0376 3 
25.8431 8.62432 8.6015 3 
25.8431 11.4936 8.60157 3 
27.2779 10.059 10.0376 3 
25.8427 8.62415 11.4736 3 
25.8427 11.4937 11.4737 3 
2.87028 14.3649 8.60125 3 
0.00119487 14.3647 8.60153 3 
1.43548 12.9295 10.0374 3 
1.43551 15.8007 10.0374 3 
2.86978 14.3648 11.4733 3 
0.000748019 14.3649 11.4736 3 
5.73949 14.3635 8.60081 3 
4.30471 12.929 10.0372 3 
4.30456 15.7997 10.0371 3 
7.175 12.9281 10.0372 3 
7.17311 15.7968 10.0366 3 
5.73874 14.363 11.4733 3 
8.61021 14.3623 8.60072 3 
11.4827 14.3625 8.60133 3 
10.0468 12.9281 10.0375 3 
10.0442 15.7954 10.0369 3 
8.60928 14.3617 11.4736 3 
11.4818 14.3623 11.4742 3 
14.3557 14.3633 8.60171 3 
12.9193 12.9287 10.0379 3 
15.7917 12.929 10.0377 3 
12.9179 15.797 10.0378 3 
15.7917 15.7983 10.0376 3 
14.3549 14.3635 11.4743 3 
17.2285 14.3635 8.60096 3 
20.1013 14.3623 8.60099 3 
18.664 12.9286 10.0374 3 
18.6654 15.797 10.0374 3 
17.2277 14.3632 11.4736 3 
20.1006 14.3624 11.4739 3 
22.9737 14.3616 8.60147 3 
21.5363 12.9279 10.0376 3 
21.5389 15.7954 10.0383 3 
22.9729 14.3622 11.4744 3 
24.4099 15.7967 10.0384 3 
24.408 12.928 10.0378 3 
25.8442 14.363 8.60165 3 
27.2783 12.9289 10.0377 3 
27.2785 15.7997 10.0378 3 
25.8436 14.3634 11.4741 3 
2.87054 17.2364 8.60135 3 
2.87111 20.108 8.60175 3 
0.000379798 20.1077 8.60141 3 
1.43555 18.6723 10.0374 3 
2.87007 17.2362 11.4734 3 
2.87072 20.1078 11.4734 3 
0.000565394 17.2364 11.4735 3 
4.92542e-05 20.108 11.4731 3 
0.000972306 17.2362 8.60147 3 
5.73951 17.2345 8.60066 3 
5.74126 20.107 8.60157 3 
4.30547 18.6715 10.0374 3 
7.17345 18.668 10.0369 3 
5.73864 17.2338 11.4735 3 
5.74054 20.1059 11.4742 3 
8.60702 17.2299 8.59877 3 
11.4795 17.2287 8.59893 3 
8.60832 20.1028 8.59945 3 
11.4669 20.0873 8.58713 3 
10.0367 18.6586 10.0338 3 
8.60514 17.2281 11.4736 3 
11.4772 17.2272 11.4751 3 
8.6063 20.0997 11.4757 3 
11.4576 20.0761 11.4748 3 
14.3558 17.2312 8.6017 3 
14.3614 20.0989 8.60729 3 
12.9115 18.6607 10.0352 3 
15.7917 18.6674 10.0377 3 
14.3528 17.2304 11.4764 3 
14.3456 20.0723 11.4836 3 
17.2306 17.2305 8.59885 3 
20.106 17.2272 8.60007 3 
17.2377 20.0724 8.5917 3 
20.1256 20.0762 8.6003 3 
18.6719 18.6607 10.04 3 
17.2276 17.2312 11.4736 3 
20.1038 17.2287 11.4763 3 
17.2221 20.0989 11.468 3 
20.1165 20.0874 11.4881 3 
22.9779 17.2281 8.6015 3 
22.9768 20.0998 8.59937 3 
21.5466 18.6587 10.0413 3 
22.9762 17.2299 11.4763 3 
22.975 20.1029 11.4756 3 
24.4097 18.668 10.0381 3 
25.8443 17.2337 8.6014 3 
25.8425 20.1059 8.60074 3 
27.2776 18.6714 10.0375 3 
25.8436 17.2345 11.4742 3 
25.8419 20.107 11.4733 3 
2.87155 22.9793 8.60228 3 
1.43556 24.4149 10.0374 3 
1.43555 21.5436 10.0374 3 
2.87122 22.9792 11.4734 3 
5.74314 22.9792 8.60319 3 
7.17945 24.4149 10.0408 3 
4.30748 24.4149 10.0385 3 
4.30679 21.5432 10.038 3 
7.17688 21.5414 10.0387 3 
5.74258 22.9783 11.4747 3 
8.6133 22.9785 8.60361 3 
11.473 22.9697 8.59227 3 
10.0475 24.4149 10.047 3 
10.0406 21.534 10.0379 3 
8.61273 22.9746 11.4784 3 
11.474 22.9482 11.4959 3 
14.3929 22.9925 8.63889 5 
15.0425 24.4149 10.7867 5 
12.8172 24.4148 10.0422 5 
14.2056 22.5774 11.6236 5 
15.7917 21.5808 10.0377 5 
12.8699 21.4982 10.0053 3 
16.5408 24.4148 9.28862 5 
17.3778 22.5773 8.45162 5 
20.1093 22.9483 8.57925 3 
18.7135 21.4983 10.0699 3 
20.1103 22.9698 11.483 3 
17.1905 22.9926 11.4364 5 
18.7661 24.4149 10.033 5 
22.9704 22.9746 8.59665 3 
24.4037 24.415 10.0342 3 
22.97 22.9786 11.4714 3 
24.4063 21.5415 10.0363 3 
21.5426 21.5341 10.0373 3 
21.5357 24.415 10.0281 3 
28.7119 22.9791 8.60145 3 
25.8405 22.9783 8.60023 3 
27.2764 21.5432 10.0369 3 
25.8401 22.9793 11.4717 3 
27.2757 24.4149 10.0363 3 
28.7116 22.9794 11.4725 3 
2.87155 25.8504 8.60229 3 
2.8712 25.8507 11.4733 3 
1.43558 27.2862 10.0374 3 
5.7431 25.8505 8.60319 3 
7.17683 27.2884 10.0387 3 
4.30677 27.2866 10.038 3 
5.74256 25.8516 11.4746 3 
8.6133 25.8512 8.60362 3 
11.473 25.86 8.59227 3 
10.0406 27.2958 10.0378 3 
8.6127 25.8553 11.4783 3 
11.474 25.8815 11.4958 3 
14.3929 25.8372 8.63885 5 
12.8698 27.3315 10.0053 3 
15.7916 27.249 10.0376 5 
14.2055 26.2524 11.6236 5 
17.3778 26.2525 8.45149 5 
20.1092 25.8816 8.57919 3 
20.1103 25.8601 11.4829 3 
18.7134 27.3316 10.0698 3 
17.1904 25.8373 11.4364 5 
22.9704 25.8553 8.5966 3 
24.4063 27.2885 10.0362 3 
22.9699 25.8515 11.4713 3 
21.5425 27.2959 10.0371 3 
28.7119 25.8506 8.60146 3 
25.8405 25.8515 8.60022 3 
28.7116 25.8506 11.4725 3 
25.84 25.8507 11.4716 3 
27.2764 27.2866 10.0368 3 
1.43521 1.44574 12.9091 3 
2.87017 0.010338 14.3451 3 
0.000183302 2.88143 14.3451 3 
1.43483 1.44561 15.7808 3 
2.86961 2.88203 14.3455 3 
4.3048 1.44704 12.9098 3 
7.17193 1.45139 12.9115 3 
5.73779 2.88488 14.3469 3 
5.73922 0.0124668 14.3473 3 
4.30409 1.44707 15.7822 3 
7.17057 1.4516 15.7866 3 
10.0325 1.46359 12.9154 3 
8.60328 2.89163 14.3502 3 
11.4746 2.89435 14.3541 3 
8.6028 0.0198923 14.3547 3 
10.0298 1.46558 15.7991 3 
11.4436 0.0536701 14.3852 3 
12.9066 1.4629 12.9222 3 
15.7939 1.45737 12.9175 3 
14.3539 2.89096 14.3516 3 
12.9134 1.46369 15.7962 3 
15.7952 1.45945 15.7922 3 
14.3542 0.0419917 14.3712 3 
18.6635 1.45329 12.9093 3 
20.1005 2.88649 14.3463 3 
18.6699 1.45527 15.788 3 
17.2302 2.88942 14.3495 3 
20.0984 0.0134788 14.3442 3 
17.242 0.0307478 14.3621 3 
21.5422 1.45524 12.9157 3 
24.4086 1.4485 12.9108 3 
21.5356 1.44832 15.7814 3 
24.407 1.44682 15.7816 3 
22.9739 2.88588 14.348 3 
22.9725 0.0124245 14.3469 3 
25.8416 0.0102769 14.3449 3 
27.2773 1.44608 12.9092 3 
28.7118 0.00980061 14.3445 3 
25.8429 2.88266 14.3459 3 
27.2768 1.44558 15.7807 3 
1.43512 4.3173 12.9093 3 
1.43506 7.18845 12.9094 3 
1.43473 4.31716 15.7813 3 
1.43467 7.18832 15.7813 3 
2.86937 5.75336 14.3455 3 
0.000293845 5.75288 14.3454 3 
7.17208 4.32215 12.9102 3 
4.30399 4.3187 12.9096 3 
4.30423 7.1893 12.9094 3 
7.17442 7.19033 12.9097 3 
4.30389 7.18934 15.7818 3 
4.30355 4.31879 15.7822 3 
7.17137 4.32263 15.7844 3 
7.17406 7.19054 15.7824 3 
5.73821 5.75539 14.3461 3 
10.0427 4.32395 12.9114 3 
10.0462 7.1904 12.9101 3 
8.60852 5.75707 14.3471 3 
11.4811 5.75681 14.3477 3 
10.042 4.32521 15.7869 3 
10.0459 7.19087 15.7829 3 
12.9165 4.32226 12.9123 3 
15.7913 4.32104 12.9112 3 
12.9187 7.18969 12.9101 3 
15.7912 7.1894 12.9098 3 
15.7921 4.32268 15.7847 3 
12.9174 4.32398 15.7861 3 
12.9187 7.1904 15.7826 3 
15.7915 7.19003 15.7821 3 
14.3548 5.75579 14.347 3 
18.664 4.32129 12.9099 3 
18.6635 7.18958 12.9094 3 
17.2278 5.75554 14.3463 3 
18.6653 4.32178 15.7835 3 
18.6638 7.18981 15.7817 3 
20.0999 5.7553 14.3458 3 
24.4089 4.32028 12.9108 3 
21.5376 4.32172 12.9111 3 
21.5358 7.18977 12.9097 3 
24.4074 7.18954 12.9098 3 
22.9721 5.75504 14.3462 3 
21.5361 4.31995 15.7819 3 
24.4077 4.31892 15.7822 3 
21.5355 7.18947 15.7814 3 
24.4069 7.18902 15.7815 3 
27.2779 4.31792 12.9097 3 
27.2778 7.1888 12.9096 3 
25.8429 5.75392 14.3459 3 
27.2773 4.31732 15.7813 3 
27.2773 7.18843 15.7814 3 
1.43503 10.0589 12.9094 3 
0.000178451 11.4941 14.3454 3 
2.86945 11.494 14.3454 3 
1.43468 10.0589 15.7813 3 
2.86949 8.62391 14.3454 3 
0.000173115 8.6237 14.3454 3 
4.30459 10.059 12.9094 3 
7.17523 10.059 12.9096 3 
5.73938 11.4936 14.3456 3 
4.30427 10.059 15.7815 3 
7.17493 10.059 15.7818 3 
5.73941 8.62447 14.3456 3 
10.047 10.059 12.9097 3 
11.4827 11.4935 14.346 3 
8.6106 11.4933 14.3459 3 
11.4828 8.62458 14.346 3 
10.0467 10.059 15.7819 3 
8.6106 8.62477 14.3459 3 
12.9192 10.059 12.9097 3 
15.7913 10.059 12.9095 3 
12.9191 10.059 15.7817 3 
15.7913 10.059 15.7814 3 
14.3551 11.4937 14.3457 3 
14.3551 8.62432 14.3457 3 
18.6633 10.0589 12.9093 3 
18.6635 10.0589 15.7812 3 
17.2274 8.62423 14.3454 3 
20.0994 8.6242 14.3453 3 
17.2274 11.4936 14.3454 3 
20.0994 11.4935 14.3453 3 
21.5353 10.0589 12.9094 3 
24.4069 10.0589 12.9095 3 
21.5353 10.0588 15.7811 3 
24.4066 10.0588 15.7811 3 
22.9712 8.62415 14.3454 3 
22.9712 11.4935 14.3454 3 
25.8423 11.4938 14.3455 3 
27.2775 10.0589 12.9095 3 
25.8423 8.62392 14.3455 3 
27.2771 10.0589 15.7812 3 
1.43504 12.9295 12.9094 3 
1.4351 15.8007 12.9094 3 
1.43466 12.9295 15.7813 3 
1.43469 15.8009 15.7813 3 
2.8693 14.3646 14.3455 3 
0.000313251 14.365 14.3455 3 
4.30417 12.9288 12.9094 3 
4.30394 15.7994 12.9097 3 
7.17439 12.9278 12.9097 3 
7.17201 15.7959 12.9103 3 
4.30343 15.7992 15.7823 3 
4.30382 12.9286 15.7817 3 
7.17395 12.9275 15.7825 3 
7.17124 15.7954 15.7845 3 
5.73813 14.3627 14.3461 3 
10.0462 12.9277 12.9101 3 
10.0427 15.7941 12.9115 3 
8.60845 14.361 14.3471 3 
10.0458 12.9272 15.7829 3 
10.0419 15.7929 15.7869 3 
11.4811 14.3613 14.3477 3 
12.9187 12.9284 12.9102 3 
15.7913 12.9286 12.9098 3 
12.9165 15.7958 12.9125 3 
15.7914 15.797 12.9113 3 
14.3548 14.3623 14.3471 3 
12.9187 12.9277 15.7825 3 
15.7915 12.9279 15.782 3 
12.9174 15.7941 15.7861 3 
15.7922 15.7953 15.7847 3 
18.6636 12.9283 12.9095 3 
18.6642 15.7967 12.91 3 
17.2279 14.3624 14.3464 3 
20.1 14.3625 14.3458 3 
18.6639 12.928 15.7816 3 
18.6655 15.7961 15.7835 3 
21.5359 12.928 12.9097 3 
21.5377 15.7962 12.9113 3 
24.4075 12.9283 12.9099 3 
24.409 15.7976 12.911 3 
21.5356 12.9283 15.7814 3 
21.5362 15.7979 15.782 3 
24.407 12.9287 15.7815 3 
24.4078 15.799 15.7822 3 
22.9722 14.3628 14.3463 3 
27.2778 12.9291 12.9097 3 
27.2779 15.8001 12.9098 3 
25.8429 14.364 14.346 3 
27.2774 12.9293 15.7813 3 
27.2774 15.8006 15.7814 3 
1.43518 18.6724 12.9092 3 
2.87016 20.1078 14.3452 3 
2.86956 17.2361 14.3455 3 
1.43481 18.6726 15.7809 3 
0.000190573 17.2366 14.3452 3 
4.30478 18.6711 12.9099 3 
7.17191 18.6667 12.9117 3 
4.30403 18.6712 15.7823 3 
7.17046 18.6666 15.7868 3 
5.73769 17.2332 14.3471 3 
5.73919 20.1057 14.3474 3 
10.0325 18.6544 12.9156 3 
8.60275 20.0982 14.3548 3 
10.0297 18.6525 15.7992 3 
11.4746 17.2237 14.3543 3 
11.4436 20.0643 14.3854 3 
8.60317 17.2265 14.3504 3 
12.9066 18.6551 12.9224 3 
15.794 18.6607 12.9177 3 
14.3542 20.076 14.3714 3 
12.9134 18.6544 15.7963 3 
15.7953 18.6586 15.7923 3 
14.354 17.2271 14.3518 3 
18.6636 18.6647 12.9095 3 
20.0986 20.1046 14.3444 3 
20.1006 17.2315 14.3465 3 
18.67 18.6628 15.7881 3 
17.2303 17.2286 14.3496 3 
17.2421 20.0873 14.3623 3 
21.5424 18.6629 12.916 3 
24.4086 18.6695 12.911 3 
22.9741 17.2321 14.3482 3 
21.5357 18.6697 15.7815 3 
24.4071 18.6713 15.7817 3 
22.9726 20.1057 14.3471 3 
28.7118 20.1084 14.3446 3 
27.2773 18.672 12.9094 3 
25.8429 17.2354 14.3461 3 
25.8417 20.1079 14.345 3 
27.2769 18.6726 15.7808 3 
1.43528 21.5438 12.9088 3 
1.43527 24.415 12.9084 3 
1.43493 21.5441 15.7802 3 
1.43498 24.4152 15.7799 3 
2.87058 22.9794 14.3446 3 
4.30658 24.415 12.9092 3 
4.30604 21.543 12.9097 3 
7.1751 21.5401 12.9126 3 
7.17746 24.415 12.9103 3 
4.3051 21.5436 15.7813 3 
4.30541 24.4151 15.7809 3 
7.1739 21.5429 15.7838 3 
7.17463 24.4151 15.7829 3 
5.74093 22.979 14.3458 3 
10.0508 24.415 12.9093 3 
10.0352 21.5271 12.9246 3 
8.61013 22.9794 14.3478 3 
10.0403 21.5432 15.7887 3 
10.0415 24.4151 15.7875 3 
11.4788 22.9896 14.3501 3 
12.9711 24.4149 12.8578 5 
12.822 21.4398 13.0071 3 
15.8238 21.4983 12.9593 3 
15.787 24.415 13.012 5 
12.9044 21.5271 15.7937 3 
15.7912 21.5341 15.7883 3 
12.9197 24.415 15.778 3 
14.3332 22.9483 14.355 3 
15.7821 24.415 15.7814 3 
18.6458 24.415 12.8917 3 
18.6555 21.5418 12.9015 3 
20.0938 22.9798 14.3395 3 
17.237 22.9698 14.3561 3 
18.6675 21.5392 15.785 3 
18.6636 24.4151 15.7812 3 
22.9701 22.9794 14.3447 3 
21.5393 21.5392 12.9134 3 
24.4049 24.4151 12.9076 3 
24.4061 21.5433 12.9089 3 
21.5356 24.4151 12.9095 3 
21.5331 21.5435 15.7789 3 
24.4056 21.5439 15.7803 3 
24.4051 24.4152 15.7797 3 
21.5318 24.4151 15.7776 3 
27.2758 24.4151 12.9078 3 
27.2762 21.5439 12.9084 3 
27.2763 21.5442 15.78 3 
27.2761 24.4152 15.7796 3 
28.7116 22.9796 14.344 3 
25.8407 22.9797 14.3439 3 
1.43527 27.2863 12.9087 3 
2.87057 25.8508 14.3445 3 
1.43494 27.2862 15.7802 3 
7.17511 27.29 12.9124 3 
4.30604 27.2871 12.9097 3 
5.74093 25.8511 14.3457 3 
4.30512 27.2867 15.7813 3 
7.17393 27.2873 15.7837 3 
11.4788 25.8404 14.3501 3 
10.0352 27.3028 12.9245 3 
10.0403 27.2869 15.7886 3 
8.61012 25.8507 14.3478 3 
14.3331 25.8817 14.3549 3 
12.8219 27.3902 13.0069 3 
15.8238 27.3317 12.9592 3 
12.9044 27.3029 15.7936 3 
15.7911 27.296 15.7882 3 
18.6554 27.2883 12.9013 3 
18.6674 27.2909 15.7849 3 
20.0937 25.8504 14.3395 3 
17.2369 25.8602 14.356 3 
21.5392 27.2909 12.9133 3 
24.4061 27.2869 12.9088 3 
21.533 27.2867 15.7788 3 
24.4056 27.2864 15.7802 3 
22.9701 25.8508 14.3446 3 
27.2762 27.2862 12.9082 3 
27.2763 27.2861 15.7799 3 
25.8407 25.8506 14.3439 3 
28.7116 25.8506 14.3439 3 
1.43468 1.44529 18.6522 3 
2.8693 2.88178 17.2174 3 
2.86965 2.88113 20.0885 3 
2.86985 0.00972346 20.0881 3 
2.86977 0.00998633 17.2167 3 
4.30429 1.4461 18.6536 3 