ITEM: TIMESTEP
70000
ITEM: NUMBER OF ATOMS
2001
ITEM: BOX BOUNDS pp pp pp
0.0000000000000000e+00 2.8712000000000000e+01
0.0000000000000000e+00 2.8712000000000000e+01
0.0000000000000000e+00 2.8712000000000000e+01
ITEM: ATOMS x y z 
1.36467 1.41281 1.47906 
3.05081 2.75001 2.68966 
2.88413 0.198068 2.76735 
2.90588 2.88785 0.155829 
4.55772 1.34944 1.29339 
7.15572 1.37722 1.36985 
5.81544 2.80843 2.67814 
5.7001 2.90227 0.0721843 
7.27394 4.08766 4.02411 
10.1248 1.40047 1.2389 
8.71995 2.99597 2.70088 
11.4157 2.8097 2.76973 
8.63471 2.80031 0.0749537 
8.65214 0.11025 0.0132069 
11.6259 0.0102398 0.067986 
12.8456 1.31904 1.2071 
15.6139 1.56624 1.37146 
14.239 2.92427 2.86693 
14.3163 0.0243794 2.97188 
18.6228 1.49365 1.24438 
17.1947 2.64798 2.93538 
19.9158 3.07291 2.85508 
17.3431 0.0796606 2.87311 
20.093 0.0691097 2.89662 
23.1557 2.92062 2.77286 
24.5299 1.32643 1.52647 
21.4373 1.57181 1.41581 
23.014 0.123118 3.04245 
22.9911 0.0780968 0.0622783 
28.506 2.77624 2.94038 
27.0471 1.44707 1.56094 
25.7573 2.97369 3.02651 
25.9606 0.107612 3.17778 
28.6048 0.0365439 2.86719 
25.8719 2.85075 0.0488351 
1.3046 4.31392 1.4276 
1.26628 7.00091 1.42449 
2.86175 5.67604 2.79623 
4.22049 4.21447 1.36688 
7.24387 4.22228 1.29125 
4.15081 7.16586 1.36385 
7.33157 7.11633 1.45073 
5.76883 5.83608 2.86634 
7.15489 7.12797 4.04876 
10.1125 4.25632 1.24111 
10.0264 7.07985 1.31564 
8.54763 5.52255 2.91683 
11.5128 5.7349 2.72 
12.9334 4.3844 1.55564 
15.7801 4.36895 1.67541 
12.9929 7.14751 1.36846 
15.8438 7.10881 1.25383 
14.34 5.74427 2.7804 
15.9713 7.36978 4.06499 
18.4866 4.1653 1.51747 
18.5468 7.15672 1.34242 
17.3568 5.72614 2.90175 
20.1995 5.90563 2.76956 
24.3612 4.46118 1.40833 
21.4874 4.35222 1.48316 
21.5983 7.27724 1.15163 
22.9983 5.79553 2.84185 
24.4349 7.30384 1.34022 
28.664 5.81118 2.84854 
27.0241 4.31217 1.53925 
27.3846 7.10515 1.35619 
25.9145 5.83297 2.84946 
1.30563 9.98749 1.31378 
2.96164 8.57012 2.77634 
2.87437 11.3871 2.83709 
0.0869536 11.4824 2.86631 
0.0877301 8.65611 2.78376 
4.23803 10.2902 1.357 
6.93444 10.0002 1.70178 
5.60489 8.67887 2.81651 
5.77289 11.6009 2.83147 
10.2312 9.89364 1.17462 
8.59795 8.50067 2.8692 
11.5773 8.69101 2.76451 
8.66802 11.1784 2.82858 
11.4717 11.3082 2.65955 
11.6187 8.57535 0.0339183 
8.53427 11.2513 0.0989535 
13.0021 10.0725 1.28637 
15.7981 10.0877 1.36077 
14.5437 8.69854 2.60855 
14.2631 11.5257 2.67336 
18.7787 9.98661 1.35497 
17.2789 8.69919 2.62684 
18.6203 10.2405 4.05463 
20.2171 8.65604 2.79761 
17.262 11.5987 2.833 
20.1588 11.618 2.94078 
21.6315 10.137 1.38615 
23.1047 8.64939 2.80608 
22.927 11.6053 3.00148 
24.3377 10.1419 1.38194 
23.1637 11.5554 0.0898901 
27.3085 10.0629 1.28305 
25.812 8.7451 2.74978 
27.3477 10.2399 4.0547 
25.8607 11.6473 2.72637 
25.8017 11.6309 0.0427937 
1.70544 12.9426 1.46567 
1.6298 15.9296 1.69157 
3.04145 14.4318 2.78248 
0.0818263 14.3017 3.00642 
4.268 15.8674 1.46012 
4.28428 12.9529 1.41979 
7.23631 12.8589 1.38581 
7.12479 15.6797 1.45908 
5.85263 14.2614 2.9511 
5.60434 14.2976 0.0906503 
10.0499 12.9772 1.46563 
10.0602 15.6318 1.57863 
8.58191 14.2713 2.89194 
11.4205 14.2989 2.95864 
8.47479 14.3327 0.121409 
12.8849 12.9674 1.36294 
15.8558 13.0753 1.51124 
12.8293 15.8981 1.40072 
15.5636 15.887 1.29302 
12.8203 12.961 4.07264 
14.4138 14.7387 2.82587 
18.7365 12.8677 1.33766 
18.6182 15.8031 1.34556 
17.2991 14.4989 2.65339 
19.9716 14.3071 2.81898 
21.6209 12.9416 1.46177 
21.6278 15.718 1.20332 
22.8239 14.4106 2.86276 
24.3717 15.8205 1.42649 
24.4181 13.1869 1.40414 
27.3458 13.0702 1.49308 
27.2547 15.9253 1.49447 
25.7051 14.2307 3.02599 
1.59846 18.8262 1.61226 
2.90818 17.3359 3.09278 
2.78438 20.0532 3.08177 
0.0117388 20.0921 0.112341 
3.09306 20.0575 0.0892247 
2.78666 17.1606 0.0749618 
4.26817 18.6548 1.60422 
7.11925 18.6384 1.36955 
5.77156 17.1765 2.82449 
5.63456 20.1806 2.84818 
10.0623 18.5565 1.43355 
8.53108 17.3259 2.7185 
11.3799 17.2946 2.80458 
8.82105 20.0836 2.5812 
11.6071 20.0803 2.94855 
11.2845 20.1098 0.129014 
12.9465 18.8234 1.51127 
15.7471 18.7021 1.47084 
14.3019 17.2907 2.89671 
14.2733 20.1764 2.91393 
14.2973 17.3159 0.0631852 
18.6256 18.6604 1.32063 
17.1856 17.1234 2.69384 
18.6139 18.5897 4.04251 
20.0626 17.1533 2.90881 
17.3152 20.1958 2.80429 
20.1449 20.0233 2.84071 
21.5424 18.6275 1.14773 
24.3173 18.7231 1.23093 
22.9799 17.1772 2.71221 
22.9409 20.0477 2.6328 
22.9784 20.1101 0.043538 
28.7072 17.1471 3.01001 
28.6133 17.2607 0.103683 
28.6999 20.1735 3.19738 
27.3026 18.6118 1.63605 
25.6745 17.0619 3.01782 
25.9919 20.3298 2.91571 
25.7802 20.2907 0.0802797 
1.48198 21.4056 1.43709 
2.87229 23.0623 2.93536 
1.26058 24.5157 1.4861 
0.0340533 23.0879 2.89856 
2.85305 23.132 0.272716 
0.14946 23.0622 0.100267 
4.35093 24.3811 1.57467 
4.26479 21.5426 1.54359 
7.2061 21.3383 1.32848 
5.79139 23.1031 3.01741 
7.02532 24.3409 1.43456 
5.65997 23.0404 0.0458507 
10.0339 21.584 1.34958 
8.77089 23.1629 2.82184 
11.4605 23.0665 2.78432 
10.0282 24.4872 1.11122 
8.56231 23.0747 0.0536137 
12.7864 21.4819 1.43487 
15.7693 21.55 1.56183 
14.159 23.2343 2.90901 
15.801 24.4315 1.43531 
12.9672 24.456 1.35706 
18.5623 21.6445 1.42734 
17.0659 23.0254 2.86149 
19.8885 23.0139 2.75752 
18.4285 24.3749 1.29126 
20.1579 22.9425 0.0315318 
21.428 21.5359 1.44524 
24.365 21.7776 1.44512 
24.3292 21.6349 4.07386 
22.8735 22.9829 2.98302 
24.3101 24.5101 1.43308 
21.5976 24.4988 1.55292 
22.9885 22.9814 0.0864453 
27.371 21.7171 1.45266 
25.8315 23.0987 2.8166 
27.158 24.4958 1.42695 
1.30495 27.2027 1.5212 
2.78689 25.7501 2.82929 
5.88717 28.6675 2.9104 
4.22553 27.26 1.44768 
7.14699 27.1104 1.40994 
5.78752 25.8699 2.88354 
11.485 28.5396 2.72054 
9.01783 28.7107 2.91837 
9.9272 27.4051 1.28385 
8.61907 25.9343 2.75835 
11.4451 25.9545 2.66535 
14.3941 28.6694 0.0897578 
13.0383 27.1186 1.3833 
16.0022 27.3589 1.59678 
14.2582 25.7451 2.72892 
14.4127 25.9519 0.0227697 
18.6198 27.3642 1.42906 
17.2823 25.7833 2.83334 
20.0606 25.7743 2.86466 
19.9779 25.7947 0.215859 
17.1737 28.5813 0.0458102 
21.5675 27.3755 1.47058 
22.8982 25.9766 2.78555 
24.5636 27.474 1.49743 
23.1241 26.0234 0.082203 
28.6669 25.7575 0.078896 
28.5042 25.963 3.12799 
27.2993 27.3105 1.41087 
25.8316 25.989 2.8885 
1.39656 1.66965 4.29392 
1.33321 1.45634 7.21926 
2.88754 2.89601 5.83304 
2.82886 0.120847 5.86625 
4.33289 1.46081 4.3917 
7.33193 1.60038 4.1395 
4.28695 1.38907 7.37812 
7.53551 1.42579 7.18691 
5.75654 2.91263 5.90917 
5.85645 0.182682 5.78231 
10.1389 1.66875 4.3014 
9.97182 1.47195 7.18166 
8.74554 2.94678 5.596 
11.6203 2.78023 5.87801 
8.65914 0.0971468 5.72007 
11.4259 0.0638999 5.70981 
12.8703 1.39139 4.10321 
15.5612 1.41345 4.44673 
12.8624 1.28588 7.23049 
15.7779 1.47155 6.94603 
14.278 2.93737 5.73199 
18.7524 1.58605 4.37089 
18.742 1.57439 7.21707 
17.1777 2.80518 5.58166 
20.0298 2.94844 5.62267 
21.6084 1.63227 4.18866 
24.55 1.43635 4.44155 
21.5412 1.55152 7.2264 
22.9255 2.92502 5.72035 
23.0244 0.0971335 5.78688 
24.4228 1.49581 7.27313 
27.165 1.54733 4.44524 
28.6404 3.09237 5.85892 
27.4447 1.69048 7.29437 
25.9007 2.93291 5.90771 
28.7043 0.179008 5.81382 
25.9133 0.157832 5.91518 
1.52355 4.35721 4.34104 
1.47808 7.06126 4.31295 
1.41161 4.51929 7.21323 
1.49371 7.21747 7.08702 
2.99484 5.6301 5.69592 
0.102427 5.70562 5.65451 
4.38098 4.33228 4.22279 
4.40375 7.01197 4.1756 
4.22652 4.36728 7.03457 
7.3319 4.42306 7.13906 
4.53814 7.30905 7.23591 
5.9534 5.62464 5.51635 
7.17833 7.23606 6.99908 
10.0381 4.25143 4.21956 
10.2484 7.06122 4.15848 
10.2744 4.38313 7.11062 
8.73197 5.77566 5.61424 
9.98638 7.19502 7.06988 
11.6108 5.78982 5.58162 
12.8597 4.35565 4.22763 
15.8741 4.32038 4.31179 
12.9653 7.22847 4.20394 
12.969 4.34205 7.25286 
15.8477 4.30456 6.98841 
12.9414 7.38242 6.79644 
14.3695 5.85449 5.56466 
15.8111 7.38255 7.00197 
18.6794 4.47149 4.29708 
18.6794 7.13136 4.13602 
18.6304 4.5691 7.15452 
17.2962 5.92595 5.66652 
18.7592 7.06019 7.18304 
20.1198 5.80685 5.63573 
21.5604 4.41705 4.21435 
21.5563 7.28367 4.53906 
24.359 7.25786 4.30294 
24.2974 4.21018 4.28779 
21.49 4.34237 7.1839 
24.3222 4.38519 7.34556 
21.6119 7.17298 7.16877 
22.9841 5.76111 5.78775 
24.3312 7.02076 7.19556 
27.2478 4.4125 4.3795 
27.4568 7.07673 4.31117 
27.3334 4.5247 7.44901 
25.8217 5.62472 5.82864 
27.239 7.1306 7.11087 
1.58087 10.1516 4.28593 
1.41257 10.1784 7.13046 
3.10137 8.55409 5.50971 
2.91005 11.4388 5.64979 
0.0216839 8.51399 5.77328 
0.0934434 11.5686 5.52759 
4.2355 10.1256 4.15673 
7.228 10.0895 4.24722 
4.57968 10.0593 7.17264 
5.66292 8.76907 5.50194 
7.20922 9.97794 7.1722 
5.68667 11.4074 5.63826 
10.1653 10.1682 4.33092 
8.81837 8.63346 5.59646 
10.1387 9.97888 7.27692 
11.4998 8.79276 5.66838 
8.52655 11.4932 5.73698 
11.5261 11.4598 5.73711 
13.03 10.0395 4.14268 
15.7423 10.1966 4.12933 
12.9983 10.1111 7.07077 
14.5065 8.78442 5.50052 
16.115 10.3331 6.98771 
14.3176 11.5556 5.86909 
17.3492 8.84494 5.60689 
18.7531 10.0622 7.1932 
19.9086 8.79045 5.63817 
17.4599 11.5359 5.43589 
20.0684 11.4055 5.75166 
21.6518 10.0417 4.15532 
24.3798 10.067 4.30024 
21.3995 10.1761 7.15313 
22.9897 8.53081 5.84648 
22.9221 11.3556 5.77198 
24.4434 10.1438 7.02287 
25.9853 8.63807 5.68628 
27.3985 10.1661 7.20302 
25.8903 11.5697 5.71532 
1.59439 13.0748 4.27526 
1.53455 15.6955 4.38422 
1.77016 12.703 7.30763 
1.50904 15.8415 7.3831 
2.77823 14.2558 5.90343 
0.23859 14.2251 5.74837 
4.28398 12.962 4.20154 
4.53511 15.7126 4.48377 
7.15663 12.8127 4.27885 
7.17533 15.8215 4.36194 
4.32202 12.8508 7.29909 
4.19022 15.4604 7.26888 
7.05847 12.8692 7.32944 
5.79703 14.2044 5.76529 
7.06686 15.6579 7.10274 
10.0618 12.9796 4.46946 
9.95596 16.007 4.2424 
10.0783 12.9061 7.13328 
8.47193 14.4177 5.88328 
9.86956 15.8582 7.2776 
11.4674 14.4261 5.79694 
15.6368 13.0798 4.42718 
12.6923 15.8598 4.20374 
15.9263 15.9626 4.16538 
12.9453 13.0091 7.07795 
16.0266 13.0101 7.04244 
12.8544 15.9561 7.2482 
14.27 14.6263 5.65633 
15.9658 15.8264 7.0883 
18.6921 13.0535 4.16818 
18.7902 15.7951 4.37189 
18.7397 12.9074 7.14052 
17.3494 14.3019 5.53906 
18.6178 15.9772 6.9844 
20.2819 14.4132 5.76114 
21.5234 13.0436 4.35584 
21.4699 15.7262 4.41916 
24.3571 12.7943 4.33132 
24.2406 15.5245 4.35438 
21.4624 12.8137 7.22098 
21.5441 15.8265 7.05978 
22.8707 14.224 5.89754 
24.4212 12.8362 6.97738 
24.3747 15.7061 7.27929 
27.1135 13.0242 4.29922 
27.3865 15.7598 4.37936 
27.3793 12.8896 6.98936 
25.8885 14.4776 5.97538 
27.4122 15.8211 7.20893 
1.36002 18.7378 4.51567 
1.54289 18.6369 7.21847 
2.99921 17.2864 5.89823 
2.82287 20.2332 5.75069 
4.30656 18.626 4.23072 
7.18452 18.834 4.13368 
4.33726 18.8702 7.07326 
5.82897 17.3416 5.76557 
7.11604 18.6741 7.20335 
5.65646 20.1693 5.70335 
10.0176 18.7146 4.32399 
8.66734 17.2544 5.69556 
10.0129 18.6586 7.18451 
11.3757 17.229 5.92933 
8.64725 20.2159 5.63586 
11.6703 20.0849 5.72456 
12.7903 18.5491 4.30625 
15.6274 18.759 4.16891 
12.9348 18.709 7.16519 
14.4378 17.2447 5.66785 
15.8245 18.6453 6.8794 
14.3869 20.0606 5.55037 
17.2107 17.3177 5.61234 
18.5757 18.7776 6.8535 
19.8342 17.3097 5.67654 
17.0583 20.0792 5.37726 
20.1769 20.0059 5.62647 
21.5899 18.5882 4.26134 
24.522 18.8264 4.1312 
21.3741 18.8748 7.20259 
22.9663 17.2057 5.69353 
22.8653 20.1502 5.77843 
24.3577 18.6757 7.30472 
27.2384 18.6995 4.33291 
28.6143 17.2854 5.76165 
28.6831 20.3115 5.78269 
25.6557 17.3803 5.66284 
27.1721 18.7886 7.20735 
25.7284 20.2684 5.72626 
1.48239 21.7453 4.41276 
1.50178 24.4701 4.45275 
1.40255 21.7444 7.29076 
2.9395 23.0674 5.78132 
1.55117 24.4949 7.07591 
4.3934 21.5495 4.37232 
4.17908 24.5173 4.33548 
7.32964 21.7582 4.29545 
7.331 24.556 4.24757 
4.24013 21.7011 7.3162 
7.28137 21.6637 7.13878 
5.83605 23.1024 5.69814 
7.28238 24.491 7.16301 
4.36717 24.446 7.15555 
10.0762 21.6094 4.26723 
9.97556 21.6186 7.12327 
8.71115 23.1853 5.75374 
11.4804 23.0733 5.57141 
10.1963 24.5501 7.24978 
12.8835 21.5625 4.22541 
15.8517 21.5954 4.19361 
15.7433 24.459 4.15235 
12.8419 21.68 7.03883 
15.866 21.4493 7.07479 
14.4364 23.1975 5.52048 
13.1437 24.4222 7.16607 
15.8393 24.426 7.04729 
18.582 21.461 4.26336 
18.6267 24.205 4.19897 
18.7995 21.4149 6.75067 
17.339 22.9842 5.75476 
20.1875 23.0362 5.73112 
18.6928 24.1561 7.3217 
21.5945 21.5402 4.3676 
24.4743 24.3717 4.2601 
21.5196 21.5914 7.08389 
22.8911 23.0097 5.73142 
24.0636 24.5615 7.26432 
24.3798 21.4743 7.29755 
27.225 21.7531 4.4377 
27.0089 24.4087 4.34997 
28.7033 23.309 5.7668 
27.2087 21.6935 7.29394 
25.7443 22.988 5.91066 
27.1146 24.599 7.19303 
1.42144 27.4118 4.4452 
1.41414 27.1276 7.42414 
2.94772 26.0111 5.8139 
4.22408 27.3615 4.29145 
7.36871 27.2874 4.37109 
4.21909 27.4228 7.2468 
5.77788 26.0931 5.70651 
7.13709 27.1655 7.14652 
10.1777 24.6573 4.24184 
10.3302 27.2256 4.35099 
8.63223 25.9547 5.57756 
10.1104 27.2678 7.11083 
11.5698 25.9425 5.8558 
12.686 24.7108 4.26946 
13.0086 27.3466 4.2179 
15.8962 27.3074 4.14443 
14.2421 28.6603 5.69735 
12.9295 27.1953 7.14123 
14.3803 25.9192 5.40049 
15.8044 27.1484 7.11292 
18.7351 27.3726 4.29581 
17.255 28.6879 5.61833 
20.0796 28.6748 5.74232 
17.2272 25.7553 5.6263 
18.653 27.447 7.08485 
19.9356 25.7658 5.90694 
21.3942 24.6781 4.29624 
21.706 27.405 4.44236 
24.3719 27.3469 4.2798 
21.5304 24.619 7.21249 
21.4306 27.2134 7.03395 
23.2111 25.9404 5.5879 
24.4777 27.4736 7.34279 
27.2328 27.2416 4.51157 
28.6928 25.9737 5.82594 
25.6488 25.7297 5.74832 
27.069 27.3122 7.18474 
2.74338 2.96501 8.64814 
0.0154766 3.14337 8.70046 
1.51938 1.40372 10.0447 
2.8674 2.94347 11.5525 
2.80552 0.0975402 11.5898 
5.79544 2.71118 8.47305 
4.36509 1.46424 10.1331 
7.27931 1.36981 10.0433 
5.56712 2.78119 11.5396 
8.83813 2.94113 8.62413 
11.4663 2.87222 8.73872 
10.1394 1.41769 10.1094 
8.68683 2.80106 11.4465 
11.5474 3.07848 11.255 
11.384 0.0349382 11.4834 
14.3297 2.73358 8.59756 
12.9579 1.44507 10.1271 
15.9096 1.38927 9.92859 
14.5631 2.9523 11.4998 
14.2585 0.235725 11.627 
17.2026 2.95564 8.57621 
20.0554 3.00861 8.49263 
17.3391 0.0537586 8.67292 
17.3049 0.104457 11.485 
18.9529 1.38607 10.0574 
17.2024 2.90526 11.2868 
20.0342 2.85385 11.5548 
23.0187 2.97552 8.60982 
22.9125 0.12966 8.73768 
22.9863 0.0543914 11.3902 
21.4224 1.51552 10.0516 
22.81 2.82855 11.4692 
24.4152 1.36163 10.2368 
25.871 2.89606 8.70218 
25.9027 0.206814 8.55764 
25.8937 0.0321093 11.5632 
28.6898 0.20016 11.3634 
28.6809 2.98344 11.5082 
27.3985 1.56223 10.0482 
25.8629 2.93656 11.4975 
2.90685 5.93251 8.54622 
0.0413163 5.77459 8.95112 
1.45947 4.31975 10.0875 
1.55048 7.23128 9.92753 
2.93136 5.89448 11.5682 
0.173385 5.71444 11.5187 
5.82896 5.89559 8.61203 
4.23335 4.35119 9.81176 
4.50391 7.16315 10.0952 
7.13117 4.15759 9.89435 
7.45895 7.14552 9.9277 
5.59161 5.62164 11.5964 
8.79987 5.74138 8.54904 
11.5148 5.98231 8.56536 
10.1781 4.51815 10.0301 
10.2427 7.42697 9.99905 
8.70469 5.74487 11.3817 
11.757 5.88114 11.3777 
14.4024 6.17114 8.33896 
13.2299 4.48548 9.91133 
15.7077 4.39309 10.0098 
12.9534 7.34065 10.059 
15.6942 7.18825 10.0453 
14.4473 5.77872 11.5711 
17.1133 5.93522 8.61201 
20.1049 5.77679 8.52268 
18.7637 4.38893 10.0683 
18.5496 7.19952 10.1292 
17.0743 5.65884 11.4236 
19.9445 5.66978 11.4108 
22.7026 5.69516 8.63414 
21.4438 4.30485 10.1488 
21.6058 7.18739 10.0666 
22.8124 5.92237 11.6684 
24.4043 4.35905 10.2133 
24.2688 7.27022 9.76505 
25.7111 5.8346 8.54515 
27.0915 4.64056 10.1034 
27.3047 7.30907 10.1096 
25.7176 5.90729 11.4345 
3.06219 8.70153 8.55197 
3.06507 11.3601 8.76383 
0.130029 8.66672 8.53792 
0.121278 11.6685 8.57913 
1.47647 10.0954 9.94608 
2.98701 8.7352 11.4513 
2.9474 11.5926 11.4126 
0.240833 11.3454 11.5371 
0.404093 8.62782 11.4547 
5.87722 8.70715 8.70876 
5.83723 11.341 8.92982 
4.38226 10.0577 10.1538 
7.20927 10.0489 10.184 
5.90661 8.71201 11.4896 
5.82785 11.5113 11.7054 
8.66243 8.51572 8.52402 
11.6248 8.71492 8.59396 
8.59163 11.4603 8.78224 
11.5688 11.4816 8.63469 
11.5962 8.70568 11.5752 
10.0746 10.053 10.0155 
8.73642 8.63388 11.3839 
8.60452 11.4125 11.6554 
11.5339 11.6416 11.5541 
14.4949 8.70454 8.56631 
14.5287 11.4586 8.57018 
13.0181 10.0532 10.024 
15.7269 10.1144 10.2078 
14.2799 8.5458 11.4792 
14.5075 11.5054 11.5638 
17.1879 8.61197 8.60249 
20.1789 8.52725 8.50418 
17.2689 11.442 8.63539 
20.0707 11.376 8.73374 
18.5167 10.0236 10.0258 
17.2181 8.53796 11.5247 
19.9791 8.60132 11.5759 
17.4699 11.652 11.6296 
19.9604 11.4593 11.5557 
22.8307 8.78422 8.57726 
22.9259 11.589 8.58218 
21.6182 10.117 10.0016 
22.9593 8.74722 11.5115 
22.9566 11.2671 11.4132 
24.4441 10.1063 9.86433 
25.9541 8.6815 8.37593 
25.8072 11.5707 8.53642 
27.4128 9.91125 10.0745 
25.7557 8.72804 11.4736 
25.8654 11.5234 11.3377 
2.90767 14.4244 8.85543 
0.0852876 14.2963 8.6724 
1.60582 12.7779 10.0918 
1.46935 15.8404 10.2582 
2.92869 14.3566 11.6729 
0.0285937 14.403 11.515 
5.66276 14.3499 8.79847 
4.38821 12.9925 10.2779 
4.36191 15.7419 10.1988 
7.26967 12.8729 10.2224 
7.09224 15.9063 10.0151 
5.80008 14.3511 11.5371 
8.49463 14.4454 8.44809 
11.2695 14.4141 8.5897 
10.0274 12.8655 10.189 
10.0535 15.8958 10.1421 
8.65171 14.5117 11.392 
11.6334 14.5208 11.5621 
14.3844 14.4951 8.60745 
12.8627 13.0617 10.1508 
15.7876 12.8739 9.93498 
12.847 15.8097 9.84977 
15.9321 15.9331 9.84142 
14.5709 14.4097 11.4312 
17.4002 14.3479 8.64 
20.0928 14.3057 8.50081 
18.6673 12.9391 10.0853 
18.463 16.0766 10.0195 
17.1657 14.4298 11.4462 
19.9623 14.4606 11.4191 
22.8262 14.3826 8.57196 
21.4477 12.9294 10.0594 
21.5032 16.0051 9.852 
22.8534 14.4479 11.4826 
24.4026 15.7267 9.93331 
24.3854 13.0354 9.9634 
25.9605 14.3099 8.4878 
27.3234 12.8418 10.026 
27.2876 15.9037 10.1999 
25.9973 14.3791 11.3195 
2.8482 17.3075 8.70059 
3.04151 20.1421 8.73029 
0.162531 20.1371 8.67984 
1.50879 18.7757 10.1345 
2.93236 17.3241 11.4462 
2.97988 20.0728 11.5731 
0.0674122 17.1656 11.5825 
0.0664622 20.0318 11.5874 
5.46813 17.147 8.56925 
5.73596 20.1457 8.67519 
4.29891 18.7678 10.1064 
7.15327 18.569 9.91098 
5.7331 17.1373 11.5715 
5.73921 20.0757 11.6034 
8.48507 17.1811 8.60105 
11.5698 17.3001 8.69614 
8.62648 20.0471 8.66283 
11.4265 20.1158 8.55128 
10.1171 18.7066 10.1363 
8.58359 17.2528 11.5441 
11.6197 17.4167 11.4887 
8.60471 19.8792 11.7468 
11.5168 20.1921 11.4959 
14.4409 17.2644 8.53409 
14.289 20.286 8.52487 
12.8887 18.6697 9.85538 
15.662 18.7288 10.096 
14.4977 17.3058 11.4588 
14.2448 20.0965 11.3413 
17.2386 17.4107 8.50075 
20.1053 17.2449 8.50341 
17.1528 19.7813 8.49378 
19.956 20.1891 8.47167 
18.6543 18.7369 10.121 
16.9951 17.3646 11.4508 
19.9579 17.3429 11.3695 
17.0204 20.141 11.526 
20.0056 20.0507 11.4915 
22.9783 17.3207 8.37331 
22.865 20.0502 8.62673 
21.5671 18.7328 9.99986 
22.8698 17.167 11.3388 
22.9485 19.9384 11.3391 
24.4737 18.5393 9.99611 
28.7085 17.2765 8.69084 
25.8914 17.2599 8.51726 
25.8098 19.9899 8.6157 
27.3927 18.5784 10.1117 
25.8315 17.2229 11.3894 
25.8783 20.0262 11.5104 
2.80059 23.2054 8.74269 
1.25899 24.2801 10.2702 
1.38304 21.5966 9.9376 
2.94194 23.0782 11.5139 
5.67759 22.9326 8.52548 
7.27552 24.5924 9.90845 
4.52361 24.2726 10.1508 
4.32727 21.7849 10.1607 
7.2135 21.5454 10.2151 
5.91642 23.0449 11.648 
8.67253 23.0469 8.67518 
11.4486 23.0893 8.50098 
10.0974 24.2579 10.1783 
10.0764 21.5923 10.076 
8.52024 22.9739 11.6513 
11.3964 22.9156 11.5221 
14.4286 23.2878 8.62216 
15.1254 24.3682 10.755 
12.9096 24.4549 10.1184 
14.1723 22.5682 11.5686 
15.96 21.6291 9.95653 
12.7803 21.7375 9.79367 
16.6491 23.8671 9.08554 
17.9312 22.1874 8.54337 
20.2521 22.9838 8.65861 
18.5955 21.2993 10.3304 
20.2485 22.9681 11.4059 
17.1285 22.9839 11.6345 
18.8026 24.1392 10.1036 
23.1238 23.0556 8.65351 
24.4068 24.5636 10.0865 
23.1666 22.9027 11.3442 
24.4013 21.3256 10.0557 
21.5623 21.4716 10.1822 
21.7115 24.4082 9.95106 
28.6166 23.2259 8.61693 
25.5959 23.2009 8.61877 
27.2495 21.3753 10.0174 
25.8006 22.7813 11.4735 
27.0899 24.3108 10.169 
28.6622 22.812 11.6731 
2.68202 28.6668 8.54715 
2.97306 25.7781 8.62835 
2.6956 25.9952 11.4995 
1.25705 27.2809 10.108 
5.80709 28.5516 8.75867 
5.65738 25.9297 8.69983 
7.35216 27.1972 10.0911 
4.16829 27.2271 10.2233 
5.83455 25.7677 11.4919 
5.67316 28.6691 11.5631 
8.80269 28.4476 8.51691 
11.4408 28.5559 8.66049 
8.73971 25.8161 8.5833 
11.5719 25.7894 8.53876 
10.0893 27.0265 10.0579 
8.51878 25.6608 11.6926 
11.3797 25.6541 11.4967 
8.68654 28.5833 11.5105 
14.4474 28.668 8.56319 
14.6445 25.7881 8.77389 
13.0517 27.31 10.0963 
15.8597 27.4368 10.0298 
14.2764 26.2567 11.6543 
20.2313 28.4685 8.60602 
17.3839 25.9671 8.59792 
19.9482 25.7413 8.89951 
20.1009 28.5571 11.5796 
20.17 25.8025 11.647 
18.5859 27.1963 10.2802 
17.172 25.8276 11.4667 
22.9361 26.0128 8.64539 
24.3365 27.4417 10.1668 
23.0704 25.8908 11.5458 
21.4567 27.1799 10.2023 
28.6881 28.6491 8.62984 
28.6038 25.591 8.66884 
25.8481 26.0793 8.75214 
28.412 25.7683 11.6997 
25.802 25.8891 11.4707 
27.3618 27.2668 10.0421 
1.37028 1.58852 12.9634 
2.78447 0.194828 14.2336 
0.138323 2.90113 14.2806 
1.34796 1.25814 15.8368 
2.77685 3.02287 14.4803 
4.2251 1.39428 12.9378 
7.22948 1.26522 12.804 
5.8934 2.8642 14.2533 
5.58515 0.103411 14.3452 
4.20213 1.4575 15.701 
7.25918 1.4698 15.5658 
10.0037 1.40205 12.9523 
8.78598 3.00476 14.3399 
11.5847 2.92319 14.2136 
8.5774 0.043195 14.3109 
9.9524 1.52017 15.7506 
11.3782 0.154183 14.3643 
12.8086 1.46222 12.9774 
15.8727 1.25645 13.1701 
14.614 2.90902 14.3499 
12.7131 1.64764 15.9781 
15.9573 1.42836 15.6891 
14.2856 0.127436 14.383 
18.86 1.37856 13.0715 
20.2183 2.85177 14.3522 
18.6596 1.33721 15.9169 
17.4124 2.81393 14.4448 
21.6368 1.34752 12.9562 
24.4025 1.45131 12.8948 
21.421 1.34783 15.6895 
24.3791 1.61218 15.6759 
22.8867 2.73568 14.3822 
25.9759 0.130669 14.2616 
27.4047 1.5918 12.8663 
28.6816 0.126171 14.136 
25.8754 2.90897 14.305 
27.3605 1.52022 15.8141 
1.50527 4.33601 12.9836 
1.61826 7.17929 13.0097 
1.51271 4.25346 16.0027 
1.51125 7.05785 15.7806 
2.87969 5.68722 14.6091 
7.24574 4.30394 12.5811 
4.2693 4.2859 12.9788 
4.47428 7.38723 13.0213 
7.29271 7.04879 12.7381 
4.21696 7.2492 15.8146 
4.40684 4.31409 15.9528 
7.26887 4.2568 15.731 
7.38409 7.08465 15.8525 
5.88765 5.61817 14.427 
10.3053 4.38479 12.8346 
10.1408 7.09543 12.8203 
8.71777 5.60864 14.3401 
11.3549 5.90954 14.3031 
10.2359 4.45898 15.823 
10.1859 7.3384 15.805 
12.9817 4.17655 12.8946 
15.86 4.41408 12.999 
13.0495 7.16153 12.9569 
15.7721 7.17752 12.9732 
15.7291 4.18702 15.9778 
12.9463 4.36806 15.886 
12.9932 7.11845 15.6744 
15.8219 7.18936 15.9802 
14.39 5.58687 14.5165 
18.6051 4.38425 12.9884 
18.6991 7.23173 12.9159 
17.2469 5.67882 14.2814 
18.6203 4.36855 15.8232 
18.5456 7.12486 15.8195 
19.9842 5.7105 14.479 
24.0622 4.27112 12.9548 
21.4923 4.30264 12.8031 
21.4 7.21885 12.693 
24.2905 7.24762 12.882 
22.8809 5.7978 14.2827 
21.5273 4.27598 15.838 
24.4101 4.1779 15.7 
21.4929 6.99776 15.8173 
24.3949 7.19587 15.918 
27.2023 4.30953 12.8197 
27.3309 7.30246 13.0164 
25.8798 5.84739 14.0513 
28.6886 5.77103 14.2508 
27.2933 4.2725 15.6001 
26.9672 7.23797 15.7709 
1.66036 9.94212 12.9227 
0.109002 11.5686 14.301 
2.99181 11.3453 14.3098 
1.43671 10.1202 15.7034 
2.84821 8.61352 14.4561 
0.0874696 8.62538 14.4832 
4.44404 9.87192 12.9454 
7.15862 9.91526 12.9327 
5.88536 11.5207 14.2816 
4.28386 10.0471 15.7635 
7.40214 9.97198 15.8971 
5.91785 8.5239 14.5495 
10.054 10.095 12.7773 
11.4937 11.5585 14.0677 
8.57883 11.4435 14.1961 
11.3644 8.61172 14.1839 
10.1876 10.2085 15.6634 
8.64341 8.52266 14.3589 
12.9847 10.1586 12.7522 
15.9023 10.1955 12.8319 
12.8044 9.9715 15.5609 
15.8129 10.108 15.7406 
14.2867 11.3571 14.415 
14.3588 8.57881 14.485 
18.7007 9.94187 13.0997 
18.8151 10.003 15.8165 
17.2588 8.4553 14.4591 
20.074 8.61205 14.3758 
17.3433 11.4861 14.4473 
20.2296 11.4093 14.4691 
21.3659 10.0427 12.9583 
24.3818 10.1374 12.9475 
21.713 9.90201 15.8289 
24.353 10.0281 15.6113 
22.8501 8.42385 14.3584 
22.8657 11.4681 14.3824 
25.8023 11.5313 14.2928 
27.4047 10.095 12.5893 
25.7116 8.7267 14.2272 
27.2447 10.0744 15.8732 
1.66731 12.9429 13.083 
1.5332 15.7958 12.9128 
1.53718 12.9922 15.6863 
1.2865 15.7901 15.8366 
2.89793 14.5799 14.5376 
0.0603216 14.4432 14.3803 
4.22618 12.9628 13.1576 
4.51974 15.8905 13.1253 
7.38172 12.914 12.8537 
7.36662 15.9301 13.077 
4.57064 15.619 15.9497 
4.41619 12.8278 15.8846 
7.2648 12.8648 15.8169 
7.28984 15.7161 16.0136 
6.02018 14.3344 14.3943 
10.1262 12.9601 12.7161 
10.0867 15.8144 12.8776 
8.88568 14.2135 14.2651 
10.4152 12.8754 15.6725 
10.1658 15.693 15.8348 
11.4903 14.2775 14.4803 
12.8726 12.9391 12.9284 
16.0084 12.8668 12.9032 
13.0108 15.8873 12.9461 
15.8455 15.6886 12.962 
14.3896 14.5151 14.2008 
12.9995 12.92 15.6671 
15.7383 12.9756 15.6616 
13.0143 15.7632 16.0201 
15.6766 15.7303 15.8716 
18.7512 12.8691 13.0307 
18.625 15.9652 12.9443 
17.4887 14.467 14.2745 
20.079 14.3617 14.3012 
18.7688 12.8874 15.7614 
18.6691 15.8092 15.8386 
21.6337 12.9849 12.8343 
21.5588 15.9095 12.7698 
24.4503 12.9743 12.8087 
24.3646 15.8424 12.7891 
21.4399 13.0921 15.6672 
21.3773 15.836 15.8137 
24.3358 12.8836 15.5081 
24.2078 15.8265 15.6037 
22.7586 14.4301 14.3942 
27.2648 12.8905 12.9194 
27.2233 15.7832 12.9287 
25.7946 14.3564 14.2934 
27.3403 13.0713 15.7461 
27.1455 15.9511 15.8203 
1.47189 18.6313 12.951 
0.11112 19.9852 14.3055 
2.9028 20.1863 14.2834 
2.86036 17.1196 14.2706 
1.54085 18.5637 15.7366 
0.115006 17.2014 14.4359 
4.26541 18.5919 13.106 
7.15778 18.373 13.2002 
4.2583 18.576 15.8213 
7.24657 18.6407 15.8841 
5.75627 17.152 14.7589 
5.71471 19.8812 14.4802 
10.1463 18.4994 13.0305 
8.63675 19.9655 14.3469 
10.1409 18.7179 15.9546 
11.4943 17.1627 14.4293 
11.4821 20.0275 14.4242 
8.8919 17.036 14.5848 
13.0463 18.5687 12.9256 
15.7094 18.7416 12.878 
14.3886 20.158 14.3304 
12.8122 18.7516 15.8755 
15.7371 18.8769 15.7695 
14.4047 17.3753 14.489 
18.7033 18.684 13.0324 
20.3283 20.2508 14.2298 
20.215 17.1447 14.3198 
18.542 18.6765 15.8689 
17.1562 17.2671 14.3654 
17.3025 20.1692 14.4279 
21.5314 18.717 12.8281 
24.4166 18.5817 12.8553 
22.8248 17.2911 14.3262 
21.5002 18.7493 15.7935 
24.4135 18.7491 15.6492 
23.0845 20.0658 14.3707 
27.3082 18.6366 12.8358 
25.8358 17.2986 14.2283 
25.7269 19.9972 14.2676 
27.2368 18.5821 15.7122 
1.59701 21.7717 12.9176 
1.34465 24.4781 13.0405 
1.45577 21.4536 15.7719 
1.42161 24.3083 15.7044 
3.01849 22.8578 14.4128 
4.33448 24.4631 12.7247 
4.23621 21.5273 12.9926 
7.18335 21.4362 12.9705 
7.16295 24.3823 13.0324 
4.25525 21.562 15.9207 
4.22277 24.3593 15.7391 
7.25833 21.3988 15.7493 
7.20386 24.35 15.7414 
5.71309 23.0295 14.4402 
10.1259 24.2483 13.0553 
10.1209 21.4408 13.031 
8.61592 22.7032 14.2393 
9.98548 21.4531 15.7956 
9.99426 24.3907 15.6618 
11.458 22.9963 14.4995 
13.0035 24.429 12.8851 
12.8639 21.4318 13.0816 
15.8057 21.5171 12.9934 
15.6944 24.4645 13.0224 
12.8267 21.6814 15.7724 
15.7673 21.5457 15.7955 
12.762 24.457 15.8 
14.2133 23.0785 14.4782 
15.8627 24.2641 15.9527 
18.5855 24.4051 12.9349 
18.6454 21.5171 13.0526 
20.1324 23.0276 14.2379 
17.1991 23.0769 14.3438 
18.8355 21.5111 15.6833 
18.5574 24.3255 15.8109 
22.9773 22.9835 14.3175 
21.6123 21.5277 12.7889 
24.4445 24.4088 13.0409 
24.3879 21.5608 12.9494 
21.6156 24.3943 12.8885 
21.5951 21.5499 15.5938 
24.1667 21.6012 15.8622 
24.0943 24.3115 15.8865 
21.4167 24.2631 15.8667 
27.1373 24.3334 12.9459 
27.3273 21.3764 13.1363 
27.3029 21.2374 15.6892 
27.3341 24.4708 15.6522 
28.706 22.8225 14.4457 
25.7834 22.9716 14.5083 
1.31096 27.444 13.0483 
2.80267 25.7954 14.3245 
1.25544 27.3091 15.6833 
7.111 27.3011 12.9087 
4.17366 27.2133 12.9896 
5.63789 25.817 14.2905 
4.24422 27.4549 15.7202 
7.08832 27.2966 15.6148 
11.42 25.9222 14.3289 
10.0053 27.1891 12.8959 
9.92871 27.3456 15.8495 
8.56584 25.9511 14.4223 
14.2381 25.8676 14.3194 
12.7891 27.5635 13.0413 
15.7381 27.3882 13.1438 
13.0596 27.3274 15.7896 
15.6147 27.5489 15.7956 
18.388 27.2285 13 
18.6758 27.2958 15.8884 
20.1511 25.7972 14.3901 
20.1206 28.4759 14.4434 
17.0048 25.7534 14.5939 
17.3527 28.6679 14.4789 
21.5843 27.2025 12.9308 
24.3669 27.2085 13.1175 
21.4165 27.1691 15.7597 
24.3606 27.3425 15.7631 
22.9217 25.7129 14.434 
22.973 28.7099 14.4718 
27.1886 27.3065 12.8563 
27.1513 27.3287 15.6603 
25.7748 25.8186 14.4908 
28.7065 25.7784 14.3646 
1.2394 1.56924 18.5022 
2.9034 2.73257 17.1389 
2.83125 2.64738 20.1619 
2.63027 0.135498 20.0964 
4.32317 1.40379 18.5252 
7.30059 1.23076 18.8002 
5.78407 2.8757 17.2413 
5.77065 0.0206962 17.1659 
5.81459 2.8477 20.133 
10.0243 1.46389 18.7203 
8.56023 2.85718 17.2555 
11.5533 3.1016 17.3862 
11.3169 0.0594207 17.134 
8.6319 2.92273 20.0306 
11.4272 2.95984 20.2125 
12.8312 1.42579 18.6587 
15.7617 1.27767 18.9316 
14.5186 2.70641 17.2893 
14.3625 0.209535 17.2541 
14.2112 2.81171 20.1639 
18.6947 1.38863 18.7688 
17.1956 2.72938 17.4488 
20.0773 2.97284 17.0694 
17.3354 2.84525 20.1599 
20.1032 2.79529 19.9808 
20.1561 0.162779 20.1091 
21.4616 1.49269 18.596 
23.0098 2.88697 17.1584 
24.4165 1.30802 18.5621 
23.117 2.69083 19.9277 
23.2087 0.174579 20.0919 
28.6514 2.88381 17.074 
27.1345 1.42212 18.5918 
25.6684 2.89412 17.313 
25.6685 0.0928857 16.9656 
28.3921 2.79166 20.0868 
25.8374 2.8996 20.1973 
28.5747 0.00526539 20.1831 
1.52519 4.29413 18.6928 
1.254 7.10425 18.5325 
2.92022 5.70355 17.3091 
2.73785 5.75586 19.965 
4.1853 4.1095 18.8049 
4.22806 7.11015 18.6497 
7.08779 4.32878 18.7187 
5.8898 5.84766 17.2137 
7.35892 7.04049 18.6222 
5.70531 5.7095 20.0211 
9.99881 4.3758 18.711 
8.69011 5.71135 17.1401 
10.2695 7.30649 18.5342 
11.6082 5.76243 17.1164 
8.62265 5.64922 20.0727 
11.565 5.769 20.14 
13.1085 4.25945 18.6639 
15.9202 4.258 18.9563 
13.0475 7.16011 18.6462 
14.4265 5.7676 17.1833 
15.7219 7.19289 18.6978 
14.4309 5.7654 20.1315 
18.701 4.33999 18.6182 
17.0657 5.51129 17.1942 
18.4354 7.14627 18.4525 
20.1319 5.6589 17.2301 
17.3111 5.81693 20.1221 
20.2598 5.51206 20.0873 