ITEM: TIMESTEP
71000
ITEM: NUMBER OF ATOMS
2001
ITEM: BOX BOUNDS pp pp pp
0.0000000000000000e+00 2.8712000000000000e+01
0.0000000000000000e+00 2.8712000000000000e+01
0.0000000000000000e+00 2.8712000000000000e+01
ITEM: ATOMS x y z 
1.34601 1.50503 1.49215 
2.84684 2.77598 2.70487 
2.98159 2.91535 0.24741 
0.207911 2.95704 2.96459 
0.0287611 2.95419 0.17902 
4.37907 1.48943 1.49456 
7.27545 1.50331 1.45962 
5.77299 2.86327 2.88035 
10.2098 1.31803 1.35539 
8.90729 2.99051 2.95169 
11.4206 2.89415 2.68626 
8.60043 0.175637 0.0551527 
8.64005 0.188899 2.92939 
12.9072 1.36124 1.53499 
15.841 1.54429 1.54924 
12.9287 1.62095 4.07082 
14.3943 2.85328 2.79675 
14.4555 0.161763 2.92553 
14.4944 0.0426168 0.0409225 
18.7126 1.61686 1.35858 
17.2489 3.0699 2.87147 
20.1062 2.9469 2.89674 
17.3173 0.0398901 2.7493 
20.108 0.0390477 2.83922 
17.2186 0.108107 0.0225589 
22.9361 2.78246 3.04306 
24.4285 1.70856 1.50258 
21.4804 1.35402 1.58944 
22.9851 0.044065 2.85959 
27.171 1.53934 1.50578 
25.8834 2.9747 2.89976 
28.6819 0.138485 0.0262483 
25.9138 0.0217529 0.242615 
1.48917 4.28166 1.3599 
1.37993 7.01335 1.4719 
2.69253 5.66582 2.88318 
0.076989 5.90096 2.91739 
4.38288 4.32778 1.45382 
7.26888 4.30146 1.21478 
4.17107 7.04847 1.35406 
7.34625 7.23261 1.47126 
5.868 5.48104 2.86125 
5.84359 5.76005 0.0402655 
10.0828 4.33904 1.33445 
10.0996 7.23476 1.14122 
8.71401 5.71492 2.73495 
11.699 5.78016 2.64319 
12.9337 4.31069 1.33608 
15.6571 4.15671 1.39518 
12.9252 7.27982 1.24915 
15.9142 7.30811 1.22017 
14.2872 5.62315 2.75821 
18.724 4.32787 1.32287 
18.6453 7.09839 1.23315 
17.1776 5.79567 2.54395 
20.1441 5.68941 2.92016 
24.5315 4.40775 1.42496 
21.511 4.19019 1.42746 
21.4656 7.08521 1.40351 
22.9628 5.69818 2.81936 
24.5408 7.2592 1.44054 
23.0222 5.7 0.0409177 
27.3551 4.4219 1.48365 
27.3451 7.12507 1.41886 
25.8012 5.73518 2.99303 
1.48431 9.99899 1.42894 
2.93842 8.67761 2.81751 
2.73186 11.452 2.79505 
0.0472119 11.5554 2.95101 
0.0767426 8.65856 2.8662 
0.116821 11.582 0.0338568 
2.95504 8.48849 0.0804257 
2.93471 11.79 0.00469547 
4.24111 10.2011 1.4214 
7.08868 9.97945 1.35595 
5.83107 8.78343 2.96277 
5.7018 11.4466 2.72393 
10.045 10.0193 1.18318 
8.46462 8.77121 2.8864 
10.0198 10.0441 4.04393 
11.403 8.66002 2.59917 
8.65194 11.5546 2.57172 
11.5753 11.6546 2.75301 
13.0934 9.91267 1.38361 
15.9065 9.81363 1.34498 
12.7997 10.0769 4.00594 
14.5125 8.67455 2.78291 
14.4189 11.488 2.70014 
18.6839 10.0753 1.38357 
17.2557 8.56246 2.70256 
20.028 8.50575 2.68855 
17.2949 11.4468 2.85406 
19.9888 11.5648 2.78721 
20.1196 8.63985 0.0473517 
21.3645 10.2175 1.32583 
22.5876 8.59614 2.80918 
22.9476 11.3513 2.81984 
24.4593 10.1065 1.55447 
22.8656 8.48373 0.234823 
27.4055 10.2466 1.49685 
25.9112 8.61243 2.67833 
25.8206 11.5633 2.83973 
28.605 8.56881 0.146694 
1.45893 13.0367 1.52081 
1.47294 15.923 1.43791 
2.8697 14.4472 2.96307 
0.122748 14.3195 0.118317 
3.0168 14.338 0.0116886 
4.42788 15.9119 1.36234 
4.2936 12.9455 1.43289 
6.78943 12.9682 1.34572 
7.22714 15.9143 1.44676 
5.76972 14.4067 3.04337 
10.1619 13.1696 1.46706 
10.299 15.8481 1.30461 
10.0708 12.7858 4.05515 
8.6952 14.3658 2.93881 
11.6491 14.2333 2.88284 
12.8809 12.997 1.41065 
15.7059 12.8951 1.58434 
12.8709 15.8131 1.01103 
15.9253 15.9552 1.52015 
14.1221 14.5278 2.93616 
14.482 14.4101 0.0827412 
18.6051 12.8333 1.50025 
18.6647 15.832 1.44939 
17.2581 14.3329 2.98308 
20.0063 14.2916 2.83846 
17.3545 14.343 0.0934769 
21.6804 13.0844 1.49701 
21.5403 15.9109 1.38397 
22.9102 14.4778 2.9746 
24.4462 15.7546 1.58997 
24.3537 13.0475 1.54523 
28.7053 14.4701 3.01622 
27.3851 13.1248 1.57475 
27.3977 15.8965 1.45343 
25.8204 14.4295 3.15441 
25.7934 14.4953 0.181349 
1.5712 18.6938 1.41567 
2.67934 17.4081 2.94878 
2.95487 20.2071 2.82006 
0.0514765 20.106 0.184471 
2.87194 17.1501 0.0805213 
0.0599705 17.4008 3.05529 
0.0840676 17.3197 0.0634032 
0.0896223 20.298 2.78605 
2.88466 20.0462 0.0167063 
5.70079 20.1951 0.0327941 
4.29157 18.5437 1.45401 
7.27253 18.7847 1.42221 
5.92253 17.222 2.68933 
5.79212 20.0154 3.15548 
5.81179 17.4043 0.0397324 
10.1581 18.5895 1.48863 
8.74209 17.1958 2.74488 
11.6535 17.2444 2.72183 
8.6629 20.1167 2.87796 
11.488 20.0834 2.89949 
13.0335 18.7162 1.401 
15.7445 18.6624 1.40682 
14.3254 17.2166 2.93903 
14.2672 20.0529 2.93409 
14.4325 17.1489 0.0964101 
18.7894 18.7434 1.27376 
17.3268 17.1959 2.8252 
20.1186 17.2112 3.01053 
17.0356 20.2399 2.86094 
20.1772 19.9831 2.73334 
21.5503 18.5697 1.37717 
24.3466 18.6929 1.49172 
23.1011 17.2863 2.84482 
23.0853 20.1424 3.01352 
22.9675 20.0413 0.121803 
25.9352 17.27 0.0237479 
27.367 18.7495 1.46231 
25.8103 17.2478 2.92206 
25.7582 20.0295 2.95021 
1.53169 21.8076 1.37873 
2.84166 23.2252 2.97307 
1.38535 24.4033 1.37272 
0.130847 22.9863 2.79568 
2.95293 23.1876 0.0441267 
4.4356 24.3994 1.59598 
4.38057 21.4837 1.47467 
7.18158 21.4902 1.40833 
5.70703 22.8851 2.97573 
7.22143 24.3998 1.58107 
5.85994 22.8784 0.166653 
10.1776 21.4232 1.51241 
8.75779 22.9814 3.01521 
11.5458 22.9556 2.81991 
10.0816 24.4042 1.43111 
8.72628 22.9651 0.151907 
12.8944 21.4154 1.43075 
15.7875 21.7014 1.26626 
14.3684 23.2104 2.72512 
15.943 24.4105 4.05901 
15.871 24.4911 1.283 
12.7986 24.4402 1.28927 
18.8646 21.5193 1.66937 
18.7669 21.7411 4.0726 
17.2629 23.0772 2.78984 
20.1157 23.1092 2.72281 
18.8403 24.5755 1.36732 
20.2676 23.0686 0.117878 
17.4052 22.8909 0.0350033 
21.6525 21.5015 1.52831 
24.4865 21.5016 1.42851 
23.1332 22.962 3.00067 
24.5551 24.316 1.69328 
21.8512 24.5137 1.50985 
22.9466 22.8054 0.0229664 
25.7699 22.9378 0.0208948 
27.3632 21.4015 1.48807 
25.8783 22.7819 2.84986 
27.2765 24.3369 1.47743 
2.64309 28.6148 3.01985 
0.0981581 28.6523 2.94303 
2.78141 25.8593 0.0608493 
1.35901 27.4052 1.47541 
2.75787 25.9052 2.75521 
0.0262046 25.9143 2.87338 
2.90889 28.7094 0.236896 
5.67749 28.6077 2.90761 
4.24122 27.2662 1.59587 
7.22568 27.4187 1.5544 
5.70691 25.8233 2.94154 
5.66871 28.6206 0.202589 
5.73595 25.9039 0.140867 
11.3405 28.6131 2.70634 
9.88318 27.4007 1.3956 
8.61846 25.8139 3.0368 
11.4794 25.7925 2.7712 
11.4447 26.0687 0.185912 
8.54656 25.9099 0.144507 
13.0106 27.3943 1.48126 
15.7946 27.2856 1.43037 
14.4027 25.9782 2.80891 
18.6909 27.4521 1.33024 
17.2644 26.0489 2.81366 
20.3503 25.9753 2.8957 
20.2156 25.899 0.0162032 
17.3333 25.8403 0.0322165 
21.5698 27.4078 1.42648 
23.1269 26.0104 2.97817 
24.4191 27.3948 1.28873 
25.9084 28.5976 3.07305 
27.3008 27.3237 1.49206 
25.8802 25.7112 2.99375 
1.39451 1.47778 4.34616 
1.3499 1.22972 7.13097 
2.90092 2.99838 5.7622 
0.102812 2.94419 5.74104 
4.25706 1.53094 4.24623 
7.30109 1.64394 4.28175 
4.15413 1.3319 6.97535 
6.9863 1.39031 7.31774 
5.62107 2.90812 5.91194 
10.0916 1.621 4.14054 
9.91175 1.64292 7.26956 
8.6377 2.92423 5.81035 
11.5079 3.21979 5.60317 
8.50936 0.17764 5.69965 
11.4218 0.17552 5.78375 
15.9331 1.42322 4.16112 
12.7977 1.6613 7.0616 
15.9215 1.44587 7.0307 
14.3108 2.94199 5.8071 
14.4351 0.105413 5.71864 
18.8017 1.51692 4.2869 
18.7952 1.67244 7.0707 
17.2097 3.09845 5.62 
20.1712 3.06528 5.52899 
17.4309 0.18702 5.55529 
20.2358 0.0786873 5.74962 
21.5217 1.61448 4.26252 
24.5725 1.39602 4.33828 
21.361 1.53439 7.18066 
23.1363 2.76527 5.72964 
22.8888 0.0129552 5.73838 
24.4656 1.48826 7.27638 
27.2744 1.6013 4.3112 
27.5339 1.39933 7.32909 
25.7855 3.10164 5.54289 
28.6533 0.0708872 5.70698 
25.8368 0.015225 6.01205 
1.4053 4.40722 4.37535 
1.48339 7.12733 4.43012 
1.35942 4.26216 7.15196 
1.44989 7.24065 7.15886 
2.92556 5.75111 5.79859 
0.139974 5.87259 6.01417 
4.06753 4.32664 7.25286 
7.02182 4.34439 4.38998 
4.30967 4.26012 4.34992 
4.38155 7.08682 4.16026 
7.20247 7.06475 4.29468 
7.15864 4.24735 7.22155 
4.10341 7.02629 7.24291 
5.70661 5.73218 5.72799 
7.09105 7.13316 7.45308 
10.1868 4.54916 4.21785 
9.95718 7.32146 4.12539 
9.98298 4.58922 7.16746 
8.50524 5.79154 5.80932 
10.0374 7.31851 7.09796 
11.4693 5.84322 5.58874 
12.9385 4.22151 4.24392 
15.621 4.30589 4.22229 
12.7658 7.30177 4.12762 
15.6854 7.14659 4.22125 
12.9304 4.38546 7.09641 
15.81 4.46707 7.0401 
13.077 7.30766 7.19099 
14.2178 5.82303 5.55969 
15.8713 7.39017 7.08204 
18.6261 4.36884 4.2336 
18.5945 7.11727 4.13363 
18.6844 4.43329 7.09242 
17.1242 5.7539 5.62231 
18.3991 7.14569 7.00301 
20.188 5.73272 5.66651 
20.1037 8.19642 5.71113 
21.7282 4.48976 4.37295 
21.5936 7.19613 4.20949 
24.35 7.41993 4.17982 
24.351 4.37279 4.24939 
21.4454 4.32517 7.11104 
24.263 4.41098 7.00958 
21.676 7.12677 6.99468 
23.1352 5.89605 5.66422 
24.5451 7.33469 7.06809 
27.3045 4.37008 4.30177 
27.3827 7.17006 4.44053 
27.2679 4.36494 7.05221 
25.8228 5.73434 5.67889 
27.1407 7.20768 7.18154 
1.44665 9.90639 4.43387 
1.32069 10.1484 7.11942 
2.85832 8.58263 5.71875 
2.9609 11.4049 5.69182 
4.38263 10.0814 4.38604 
7.10057 10.1076 4.39178 
4.25077 10.0267 7.23062 
5.57231 8.62459 5.74982 
7.33211 10.1019 7.35275 
5.91866 11.5509 5.89195 
8.46276 8.63673 5.58857 
10.3278 9.96379 7.06681 
11.635 8.60574 5.52838 
8.93049 11.3711 5.79193 
11.4835 11.6418 5.74326 
15.6373 10.1558 4.14619 
12.9159 10.0402 7.00166 
14.3326 8.60276 5.51522 
15.7426 10.0368 7.12021 
14.2577 11.3062 5.63168 
18.5667 9.99348 4.13051 
16.9984 8.64353 5.51236 
18.5353 9.72397 7.04264 
17.2004 11.4612 5.77116 
20.0934 11.3692 6.02603 
21.3888 9.94293 4.4542 
24.4264 10.0281 4.23186 
21.4288 9.85984 7.14261 
22.9469 8.7003 5.67409 
22.8594 11.622 5.76705 
24.4678 10.2189 7.06468 
27.0207 10.0837 4.27242 
28.4952 8.7304 5.87541 
28.5705 11.6032 5.84178 
25.8355 8.76076 5.67999 
27.2796 10.1443 7.48501 
25.8482 11.5123 5.72409 
1.37969 13.0066 4.41301 
1.49453 15.8933 4.32876 
1.54673 13.0078 6.85488 
1.52888 15.7736 7.2214 
3.03999 14.4322 5.80117 
4.45396 12.8436 4.19857 
4.36068 15.7542 4.43553 
7.33464 12.7012 4.26123 
7.12008 15.8505 4.14322 
4.41376 13.1187 7.23009 
4.48281 15.6998 7.15894 
7.42522 12.8062 7.12905 
6.1375 14.2766 5.7501 
7.47771 15.6851 6.95499 
10.1915 15.8741 4.2269 
10.0299 12.715 7.2682 
8.76216 14.3007 5.54297 
10.1008 15.5529 6.91836 
11.633 13.9815 5.93074 
12.9296 12.9081 4.34019 
15.8724 13.0373 4.39843 
12.7773 15.7324 4.40163 
15.7633 15.7742 4.37289 
12.9904 12.7639 7.16978 
15.7645 12.9217 7.01417 
12.9148 15.7343 7.25852 
14.2905 14.4803 5.86793 
15.8377 15.9943 7.16237 
18.6423 12.714 4.43301 
18.5904 15.7152 4.3021 
18.6755 12.9961 7.36579 
17.1956 14.5221 5.8483 
18.4259 15.8284 7.2485 
20.0368 14.3143 5.59902 
21.3911 12.7888 4.26239 
21.6022 15.6584 4.35655 
24.3805 12.9618 4.39842 
24.227 15.9386 4.3891 
21.5735 13.0096 7.11254 
21.4762 15.8521 7.30682 
22.9825 14.4307 5.93078 
24.2396 12.9691 7.33906 
24.2124 16.0676 7.33461 
27.3154 13.0668 4.49276 
27.1673 15.811 4.48536 
28.6488 14.5548 5.78175 
27.2031 12.9639 7.174 
25.6569 14.5697 6.09811 
27.3467 15.9529 7.07464 
1.37154 18.9514 4.29922 
1.44178 18.5772 7.22248 
2.66795 17.2094 5.84191 
2.88338 20.1322 5.70065 
0.0739935 17.275 5.89222 
4.22835 18.7948 4.13031 
7.30447 18.6668 4.36081 
4.39421 18.6253 6.98622 
5.72179 17.2463 5.6509 
7.25239 18.7423 7.11599 
5.79602 20.062 5.57609 
10.0413 18.8578 4.29436 
8.54906 17.2637 5.62039 
10.0999 18.7109 7.32749 
11.4067 17.2551 5.76167 
8.66146 20.2315 5.63058 
11.454 20.2865 5.65866 
12.9279 18.5832 4.49177 
15.7703 18.6958 4.33626 
12.9499 18.5895 7.17384 
14.3446 17.1344 5.68841 
15.7209 18.7497 7.12707 
14.3449 20.1235 5.70804 
18.576 18.7838 4.21623 
17.3002 17.2936 5.60855 
18.827 18.7595 7.12139 
20.0458 17.3038 5.83783 
17.1934 20.2126 5.6537 
20.1072 20.2501 5.56794 
21.6908 18.809 4.31966 
24.3256 18.6504 4.24149 
21.4551 18.6696 7.19349 
22.8817 17.369 5.55496 
22.8648 20.2962 5.81237 
27.2446 18.7326 4.54248 
24.6149 18.5442 7.12605 
28.7087 20.0285 5.80849 
25.7016 17.1731 5.71952 
27.2811 18.6991 7.18219 
25.7601 20.108 5.74668 
1.56623 21.7521 4.49138 
1.38337 24.4366 4.40162 
1.47468 21.4304 7.30223 
3.07541 22.8227 5.87575 
1.45785 24.3042 7.24413 
0.0479768 22.8793 5.92863 
4.35581 21.5662 4.3468 
4.36664 24.4563 4.40739 
7.36359 21.5429 4.25211 
7.13415 24.3118 4.35676 
4.50728 21.4605 7.0964 
7.29018 21.3864 7.25798 
5.8199 22.84 5.71985 
7.10697 24.3549 7.14912 
4.32911 24.3526 7.25768 
10.2335 21.6339 4.25958 
10.1005 21.5999 7.06978 
8.67531 23.1798 5.63723 
11.6222 23.1799 5.60801 
10.1145 24.4347 7.13247 
13.1337 21.6324 4.49094 
15.8224 21.7448 4.28452 
12.9587 24.5366 4.21273 
12.8468 21.5564 7.05642 
15.5742 21.4784 7.01673 
14.4346 23.1502 5.73635 
13.0431 24.5355 7.05368 
15.9249 24.5858 7.14074 
18.7949 21.4172 7.04581 
17.3794 23.0004 5.70434 
20.0821 22.9863 5.79136 
18.8043 24.5242 7.18032 
21.5563 21.7966 4.16855 
24.4748 21.6254 4.42581 
24.5697 24.4772 4.49911 
21.556 24.4097 4.34631 
21.5023 21.7097 7.18668 
23.0798 22.9852 5.86889 
24.5205 24.4207 7.2852 
24.4518 21.6862 7.16942 
21.5291 24.4391 7.19786 
27.3315 21.4561 4.35331 
27.4315 24.3105 4.2331 
27.157 21.5239 7.42827 
25.9088 23.1459 5.84983 
27.1687 24.3281 7.29541 
1.32672 27.0996 4.54623 
2.8406 28.5867 5.69238 
1.31533 27.0045 7.23112 
2.96448 25.7236 5.85226 
4.27433 27.1705 4.20123 
7.26239 27.2644 4.42027 
5.7055 28.5947 5.84863 
4.17943 27.2401 7.26299 
5.78014 25.8458 5.72659 
7.13431 27.2977 7.25646 
10.1618 24.6407 4.31644 
10.0091 27.443 4.24514 
8.69694 25.9597 5.90987 
9.94343 27.3952 7.03307 
11.5136 26.1366 5.76926 
12.8255 27.3163 4.16743 
15.86 27.244 4.31551 
12.8393 27.4566 7.14878 
14.5067 25.9325 5.6656 
15.9487 27.3788 7.18542 
18.6891 24.7042 4.21904 
18.7582 27.3469 4.32512 
17.1615 25.8571 5.73726 
18.7663 27.4901 7.23132 
20.2029 26.0384 5.70252 
21.543 27.451 4.31851 
24.433 27.2505 4.5055 
21.583 27.2934 7.16596 
22.9817 25.9167 5.90169 
24.369 27.3489 7.37223 
27.3068 27.2543 4.55305 
28.6489 25.6252 5.80338 
25.8643 25.8495 5.86354 
27.3531 27.2122 7.11486 
2.58413 2.79309 8.42828 
0.0762728 2.99198 8.70478 
1.49593 1.20467 10.1215 
2.69987 2.86158 11.5998 
5.54949 2.84713 8.58004 
5.46041 0.0678031 8.76615 
4.15404 1.48912 10.3128 
7.07931 1.28146 10.0281 
5.65227 2.77889 11.5966 
8.5921 2.95442 8.60776 
11.5072 2.99637 8.46616 
8.69263 0.053324 8.59832 
11.4886 0.032427 8.51057 
10.1563 1.45277 10.0473 
8.55779 2.83606 11.4705 
11.4792 2.80417 11.4039 
11.4454 0.0712579 11.3712 
8.63382 0.0541569 11.3778 
14.3695 2.72462 8.54119 
14.4446 0.0318801 8.54924 
12.7877 1.40711 9.88501 
15.9203 1.66969 9.95794 
14.1481 2.8897 11.4673 
14.2121 0.216986 11.3541 
17.3771 2.92475 8.48389 
20.1679 2.59714 8.62663 
17.2714 0.100379 8.63573 
20.1177 0.0324342 8.82368 
17.0933 0.0370191 11.4433 
18.6273 1.41114 10.1095 
17.2211 2.82597 11.4304 
19.954 2.68297 11.5146 
23.0338 2.78386 8.6028 
23.0345 0.242938 8.71721 
22.9792 0.136766 11.5177 
21.4561 1.47672 10.1295 
22.8742 3.08759 11.3834 
25.9473 2.97615 8.4413 
24.6527 1.52271 10.0018 
25.8746 0.0494903 11.3781 
28.6761 2.99758 11.5513 
27.4198 1.51104 10.2198 
25.6792 2.97811 11.5628 
2.8526 5.69964 8.64574 
1.44639 4.29505 10.0647 
1.57324 7.29416 10.0135 
2.96156 5.5263 11.5076 
5.59207 5.58684 8.655 
4.19673 4.13882 10.1001 
4.32194 7.24952 10.0126 
7.14581 4.18304 9.90665 
7.14533 7.30798 9.94755 
5.96616 5.64671 11.4087 
8.54109 5.86112 8.66921 
11.6026 5.79577 8.47718 
10.1792 4.36995 9.96695 
10.2395 7.20625 9.95224 
8.51874 5.77433 11.4402 
11.4863 5.66786 11.5223 
14.4227 5.71376 8.45806 
13.1086 4.47086 10.0905 
15.8597 4.16872 9.80917 
13.0679 7.08406 9.89117 
15.8677 7.12093 9.91899 
14.5523 5.74556 11.4165 
17.3035 5.67614 8.68438 
20.0289 5.79682 8.34062 
18.7612 4.22607 9.99505 
18.7 6.98201 10.2379 
17.0227 5.53935 11.4031 
20.0787 5.6646 11.3418 
22.9803 5.58526 8.41331 
21.5789 4.27606 9.85374 
21.556 7.23158 9.98296 
22.8235 5.82188 11.3209 
24.3832 4.47516 10.0168 
24.4617 7.26302 10.0068 
28.7067 5.9051 8.73222 
25.78 5.8356 8.54613 
28.6507 5.91194 11.309 
27.1613 4.47488 10.1183 
26.9948 7.43133 10.0313 
25.6852 5.90181 11.3233 
2.91043 8.71917 8.51759 
3.02999 11.542 8.53594 
0.0269955 8.66158 8.82454 
0.140801 11.613 8.65273 
1.49176 10.1569 10.0149 
3.02457 8.51858 11.5119 
2.97621 11.5977 11.4339 
0.0351024 11.5919 11.3395 
5.72544 8.62361 8.57724 
5.49385 11.4502 8.56582 
4.32827 9.98989 10.1385 
7.05947 10.1641 9.9521 
5.97609 8.61048 11.6964 
5.62179 11.4797 11.5718 
8.60892 8.64746 8.44224 
11.5364 8.77381 8.74712 
8.65423 11.4746 8.6803 
11.5946 11.3574 8.53263 
11.8359 8.41626 11.5588 
9.97708 9.89208 10.0827 
8.59115 8.43227 11.3843 
8.74174 11.4038 11.452 
11.6033 11.5283 11.5816 
14.4939 8.68777 8.56119 
14.3823 11.6151 8.74204 
13.0754 9.97892 10.124 
15.9171 10.178 9.98471 
14.5024 8.66589 11.4259 
14.5485 11.5164 11.5042 
17.2682 8.65108 8.55264 
20.1106 8.62963 8.48275 
17.3924 11.4074 8.60312 
20.1087 11.5071 8.63267 
18.5233 9.89115 10.0995 
17.0896 8.54558 11.3954 
19.9434 8.57443 11.649 
17.3918 11.3889 11.7411 
20.2302 11.4424 11.4189 
22.9085 8.60158 8.49495 
22.8411 11.5329 8.65456 
21.4431 9.98685 9.95029 
22.9945 8.64384 11.2507 
22.817 11.4731 11.3367 
24.3124 10.0977 9.93862 
25.6474 8.68618 8.60874 
25.7862 11.6173 8.78369 
28.6275 8.59712 11.3714 
27.3786 10.2562 9.90038 
25.8822 8.90027 11.332 
25.7855 11.5056 11.4456 
3.00636 14.4126 8.72807 
0.153573 14.3376 8.44437 
1.46488 13.0354 9.89612 
1.54798 15.9308 9.98496 
2.8784 14.5308 11.3294 
0.193319 14.4989 11.5086 
5.98902 14.265 8.54455 
4.26492 12.9675 10.1517 
4.49426 15.7655 9.85867 
7.2361 12.7671 9.9425 
7.17421 15.7875 9.97006 
5.86761 14.1447 11.4393 
8.64716 14.3647 8.45264 
11.5584 14.2931 8.50399 
10.1824 12.601 10.1067 
10.1479 15.7073 9.96644 
8.61415 14.3359 11.4912 
11.3617 14.1226 11.3961 
14.498 14.3205 8.51524 
13.0577 12.9291 10.0609 
15.9353 12.9488 9.99514 
12.8114 15.6785 10.0366 
15.7426 15.6659 10.1308 
14.3473 14.2317 11.5137 
17.2134 14.3314 8.79589 
20.0368 14.3781 8.63622 
18.5713 12.7959 10.1634 
18.5168 15.9078 10.0371 
17.281 14.3854 11.7098 
20.0299 14.4612 11.4625 
22.8905 14.4047 8.69594 
21.3434 12.9729 10.1091 
21.4991 15.8196 10.1036 
22.9155 14.3832 11.5239 
24.3862 15.9338 10.2137 
24.3033 12.8939 10.0549 
25.6465 14.4794 8.83277 
27.437 13.1738 9.86748 
27.4635 15.6591 10.1084 
25.9568 14.3139 11.6991 
3.04716 17.2955 8.51849 
2.82557 19.8394 8.55761 
1.33174 18.6265 10.0954 
3.19023 17.1772 11.3068 
3.1165 20.0663 11.3699 
0.0272006 17.125 11.3073 
0.259623 20.1503 11.541 
5.97176 17.0414 8.36079 
5.89539 20.085 8.63537 
4.45202 18.6786 9.76783 
7.29101 18.3773 9.96234 
5.67009 17.2009 11.4152 
5.85906 19.9642 11.3014 
8.71101 17.1305 8.44313 
11.3742 17.1603 8.39543 
8.78048 19.9659 8.80678 
11.4108 20.1832 8.4529 
9.82216 18.4301 10.1428 
8.58454 16.9872 11.484 
11.4389 17.1086 11.3346 
8.46638 19.8366 11.5699 
11.3192 20.1241 11.538 
14.4406 17.2451 8.6425 
14.2774 20.0607 8.64598 
12.874 18.5681 10.1 
15.8402 18.5936 10.0609 
14.4019 17.2447 11.5622 
14.4669 19.9414 11.4383 
17.2095 17.496 8.43451 
20.0811 17.2403 8.73483 
17.3746 20.1496 8.57359 
20.2595 20.2149 8.6387 
18.4171 18.6243 10.0725 
17.1633 17.1028 11.6318 
20.0681 17.2473 11.5073 
17.1625 19.9617 11.5034 
20.0374 20.2943 11.3279 
22.81 17.2932 8.66056 
23.1687 20.2184 8.69461 
21.4949 18.7421 10.1427 
22.807 17.3822 11.5678 
22.9935 20.1395 11.5178 
24.3317 18.6723 9.90503 
28.5975 20.0389 8.59243 
28.5546 17.0061 8.62364 
25.8159 17.0655 8.65729 
25.7718 20.0832 8.66628 
27.3963 18.6106 9.97666 
25.8156 17.3602 11.599 
25.7163 19.9829 11.3753 
2.97262 22.9913 8.70264 
0.116967 22.8099 8.69904 
1.58332 24.3346 10.2331 
1.58011 21.3915 10.1377 
3.09265 22.8055 11.4133 
5.96043 22.9343 8.40258 
7.26597 24.3679 10.0908 
4.50677 24.3731 10.0067 
4.49134 21.4215 9.92411 
7.37654 21.504 10.0025 
5.66784 22.868 11.5424 
8.68424 22.864 8.41437 
11.5248 23.137 8.4675 
10.1583 24.221 10.0547 
10.0671 21.3727 9.99128 
8.66356 22.8654 11.5022 
11.3502 22.8285 11.5038 
14.3504 23.0199 8.70484 
16.3217 24.5559 9.63237 
14.6697 24.1838 10.6954 
12.6691 24.3793 10.0529 
14.1199 22.2493 11.7574 
15.8226 21.4347 9.8193 
12.8972 21.4469 9.95517 
17.4499 22.8525 8.48616 
19.9723 22.8911 8.70566 
18.4506 21.5629 10.0714 
19.9676 22.9332 11.4632 
17.014 22.8828 11.4962 
23.1592 23.067 8.55334 
24.5368 24.4111 10.0818 
22.9875 23.0171 11.4767 
24.5069 21.6 9.99079 
21.5952 21.6766 9.92606 
21.4874 24.4892 9.7734 
25.8673 23.0462 8.78214 
27.362 21.5517 10.2365 
25.9489 23.1441 11.4406 
27.3703 24.4272 10.0979 
28.5966 23.1184 11.4311 
2.86747 28.6406 8.55724 
3.01432 25.7518 8.67893 
0.124714 28.532 8.66888 
0.185264 25.6755 8.65382 
0.0697061 25.7948 11.4739 
3.02203 28.4367 11.5407 
0.157965 28.5085 11.6064 
1.4986 27.0561 10.1735 
2.92653 25.869 11.585 
5.88845 25.6734 8.71005 
5.84364 28.577 11.5973 
5.87215 25.76 11.6027 
4.40206 27.2385 10.1442 
7.24447 27.2367 9.80107 
8.73428 25.7371 8.63332 
11.4075 25.8045 8.47455 
11.4423 25.982 11.3652 
8.65235 25.7947 11.5998 
9.92026 27.2285 10.08 
14.257 25.8528 8.58314 
14.3236 26.324 11.4227 
15.7141 27.3591 9.93761 
12.9432 27.2194 9.9601 
17.3427 26.0386 8.44788 
19.9683 25.9895 8.74074 
17.1098 25.8621 11.4634 
18.4616 27.2149 10.1179 
20.0594 25.7337 11.447 
20.1323 28.5702 11.6284 
18.6176 24.6143 9.96689 
22.9567 25.8133 8.51263 
21.5065 27.3019 10.081 
22.9362 25.9422 11.3641 
24.4819 27.5238 9.89194 
26.0866 28.6572 8.7852 
26.0205 25.7522 8.74888 
27.4211 27.3671 10.1466 
25.7124 25.8694 11.3425 
1.49718 1.24097 12.9099 
0.183768 3.03952 14.2889 
2.92073 2.84151 14.1697 
1.59235 1.50341 15.6075 
4.31868 1.23216 13.1065 
7.31636 1.26346 12.9889 
4.31975 1.49792 15.787 
7.24998 1.4163 15.7468 
5.87834 2.68183 14.3985 
10.0758 1.52356 12.8707 
8.7632 0.113692 14.3356 
11.5119 2.81899 14.2476 
8.62156 2.89258 14.2319 
10.0538 1.50953 15.7015 
11.5026 0.0576415 14.3654 
12.7377 1.45277 12.7214 
15.8453 1.43924 12.8733 
14.2014 2.7137 14.2285 
15.7131 4.08637 12.8726 
12.9058 1.61817 15.7133 
15.7269 1.31779 15.5678 
18.6451 1.25747 12.9729 
20.0937 2.81888 14.1973 
18.6028 1.55868 15.8068 
17.1059 3.15034 14.3746 
21.3907 1.36541 12.949 
24.2347 1.6138 12.6846 
23.0294 0.0463223 14.2118 
23.0674 2.90989 14.2569 
21.6324 1.6603 15.7168 
24.3853 1.48588 15.6599 
27.4191 1.24121 12.8877 
25.7967 3.00221 14.2877 
25.6808 0.104537 14.2158 
27.2812 1.55909 15.8201 
1.35508 4.46448 12.833 
1.5672 7.22601 13.0069 
1.35904 4.37699 15.6958 
1.34559 7.13862 15.7552 
2.79361 5.83177 14.3808 
7.20612 4.31049 12.9017 
4.54153 4.4463 12.9638 
4.3836 6.97877 12.873 
7.22643 7.0859 12.7609 
5.91078 5.80892 14.3281 
4.27733 7.01602 15.7118 
4.33647 4.28263 15.6762 
7.37738 4.28872 15.6536 
7.13748 7.23938 15.7701 
9.99457 4.3314 12.7713 
10.0702 7.17508 12.8682 
8.68258 5.71368 14.3426 
9.99811 4.30028 15.8852 
10.1619 7.07794 15.6628 
11.5944 5.69241 14.361 
12.9893 4.38086 12.924 
13.0083 6.9372 12.9208 
15.6533 7.04326 12.8211 
15.6091 4.33944 15.6724 
12.7495 4.36197 15.7337 
12.9075 7.13554 15.7723 
15.8484 7.23172 15.9221 
14.315 5.76084 14.4675 
18.6077 4.45884 12.8036 
18.5751 7.15441 12.9081 
19.9735 5.71835 14.3068 
18.5538 4.43442 15.8203 
18.5442 7.16749 15.7883 
17.19 5.68242 14.4168 
24.2418 4.51477 12.8887 
21.4736 4.25908 12.7985 
21.4687 7.03904 12.8403 
24.5151 7.23314 12.722 
22.9601 5.8679 14.1094 
21.4469 4.42627 15.4917 
24.1384 4.24612 15.7469 
21.6363 7.11233 15.7658 
24.4267 7.13578 15.6441 
27.406 4.3147 13.0071 
27.1938 7.1444 12.795 
25.9616 5.75527 14.2297 
28.4319 5.94585 14.3206 
27.2956 4.22324 15.7702 
27.1182 7.16096 15.7968 
1.7166 9.96542 12.8131 
2.99206 8.48124 14.313 
2.86149 11.4512 14.2497 
0.134218 11.4546 14.3724 
1.54942 9.97499 15.7368 
4.09405 10.1158 15.7947 
4.41513 9.99649 12.9111 
7.12501 10.1707 12.8586 
5.67246 11.4789 14.3417 
7.0684 10.0396 15.8473 
5.79107 8.61394 14.3739 
9.93528 9.94789 13.0019 
11.4434 11.3918 14.2865 
10.2214 10.1048 15.65 
8.62748 8.60655 14.4207 
8.65786 11.5813 14.6936 
11.4987 8.50743 14.4357 
12.9085 10.07 12.9435 
15.94 9.91438 13.0097 
14.3276 8.59759 14.1953 
13.0766 10.0237 15.7924 
15.8543 9.88242 15.7302 
14.3299 11.5053 14.4302 
18.6037 9.97224 13.1786 
20.0449 11.498 14.2692 
17.0736 8.42351 14.2734 
18.5135 9.94455 15.7971 
17.1641 11.5629 14.4194 
20.0162 8.44 14.5255 
21.2788 9.83337 13.0577 
24.1771 9.87843 12.8631 
22.9479 8.69873 14.3373 
21.3787 10.0846 15.6953 
24.3536 10.1941 15.8705 
22.8908 11.4048 14.4619 
25.6993 11.4832 14.2528 
27.4152 10.1756 12.7688 
25.8874 8.56771 14.1804 
28.5732 8.48386 14.197 
27.2509 10.0036 15.5771 
1.44227 12.9744 12.7139 
1.52906 16.0372 12.8562 
0.120344 14.3286 14.1963 
2.81861 14.5482 14.2679 
1.46943 12.9276 15.6659 
1.58452 15.8791 15.8019 
4.09424 15.8724 15.9547 
4.28458 12.8639 12.8802 
4.36133 15.6878 12.975 
7.31842 12.9422 12.9338 
7.05125 15.9243 12.8757 
5.75687 14.2356 14.3446 
4.15153 12.9364 15.8631 
7.09572 12.9731 15.9139 
6.97993 15.6854 15.8199 
9.96202 13.0456 12.9689 
10.221 15.6497 12.9011 
11.3422 14.2419 14.236 
10.0636 12.9093 16.1258 
9.95045 15.6545 15.7563 
8.67181 14.345 14.5427 
12.9659 12.8778 12.9087 
15.7731 12.9458 13.0216 
13.0066 15.6011 12.844 
15.653 15.6101 12.9193 
14.349 14.2869 14.4664 
12.721 12.9781 15.8403 
15.7757 13.0493 16.0147 
12.8626 15.819 15.7231 
15.6675 15.9292 15.7351 
18.6864 12.8321 12.9622 
18.5575 15.8147 13.0728 
17.0602 14.4277 14.2979 
20.0958 14.3787 14.3383 
18.683 12.9221 15.8068 
18.5436 15.8349 15.7141 
21.4831 13.0056 12.8338 
21.4631 15.8929 12.953 
24.198 12.8748 12.8473 
24.3651 15.9958 12.8041 
22.8591 14.4051 14.137 
21.5765 12.9702 15.6248 
21.4605 15.824 15.7727 
24.3353 13.0332 15.582 
24.1162 15.8998 15.6987 
27.3984 12.8924 12.8829 
27.3252 15.9282 12.7984 
25.8842 14.5038 14.3187 
27.3473 13.0362 15.6828 
27.4076 15.7165 15.7137 
1.65381 18.7278 13.0037 
3.04898 17.2915 14.2074 
0.0902153 20.1198 14.1505 
0.00252786 17.1349 14.2982 
2.98219 20.0859 14.4156 
1.45206 18.7238 16.0148 
4.31662 18.6854 13.1079 
7.25954 18.5066 12.8279 
4.38007 18.6589 15.7971 
7.21657 18.5923 15.7961 
5.73908 17.078 14.4228 
5.57745 20.0833 14.3901 
9.95543 18.5183 12.896 
8.70435 17.093 14.2162 
11.424 17.0448 14.3338 
9.97368 18.5857 15.8301 
11.432 19.9026 14.4617 
8.53825 20.0659 14.3587 
12.7119 18.5855 12.9397 
15.7879 18.7295 13.0398 
12.8497 18.6761 15.7635 
15.6878 18.4315 15.8763 
14.3346 17.3177 14.3797 
14.2854 19.9576 14.4467 
16.968 17.2806 14.2678 
18.574 18.6109 12.9652 
20.0183 17.2571 14.2483 
19.8502 20.0311 14.2909 
18.5236 18.6785 15.9826 
17.1512 19.9514 14.4685 
21.343 18.7584 12.8479 
24.4007 18.7735 13.0538 
21.2147 18.7189 15.9228 
24.337 18.6123 15.72 
22.732 20.0917 14.4641 
22.7197 17.2763 14.4437 
27.4056 18.691 12.8764 
25.7103 17.2308 14.2126 
27.3999 18.5156 15.6712 
25.8696 20.0868 14.378 
1.63548 21.5385 12.9621 
1.57745 24.328 12.9307 
0.0129211 22.9917 14.178 
1.42027 21.462 15.8291 
1.37341 24.3596 15.8639 
2.82093 22.8321 14.393 
4.28445 24.5288 13.0021 
4.43102 21.3283 12.8864 
7.0874 21.3235 12.8969 
7.24451 24.0201 13.2158 
4.17444 21.597 15.9777 
4.24916 24.433 15.7899 
7.08552 21.5858 15.9024 
7.23259 24.5045 16.0314 
5.51179 22.9619 14.4049 
10.1425 24.3878 12.919 
9.90221 21.3684 12.9691 
11.4271 22.8438 14.3093 
8.65373 22.9585 14.6444 
10.1348 21.5214 15.7647 
10.0709 24.5661 15.8556 
12.9673 24.3938 12.8051 
12.7863 21.1904 13.1494 
15.7727 21.3513 13.2355 
15.5301 24.3618 12.9194 
12.9115 21.6775 15.901 
15.8899 21.4555 15.8028 
13.0002 24.2836 15.6186 
14.3917 22.8725 14.389 
15.6043 24.5251 15.8131 
18.3599 24.3529 12.9224 
18.5819 21.3571 13.017 
20.1443 22.9842 14.2732 
18.6549 21.4295 15.7738 
18.3883 24.3558 15.7498 
17.1105 22.7961 14.3606 
22.9514 22.9207 14.2511 
21.4925 21.562 12.904 
24.4485 24.5145 12.8618 
24.4654 21.5495 12.991 
21.5144 24.3515 12.9067 
21.5136 21.6487 15.9035 
24.1883 21.6719 15.8624 
24.2669 24.462 15.6586 
21.3739 24.44 15.6937 
27.2571 24.4977 12.9052 
27.1732 21.41 12.8132 
25.8572 23.0269 14.3099 
27.1365 21.576 15.8364 
27.23 24.2891 15.9301 
2.83234 25.7809 14.3041 
1.25229 27.0463 13.1802 
1.32229 27.2747 15.9945 
2.97854 28.6278 14.3988 
0.00923456 28.6664 14.3724 
4.50207 27.1822 13.066 
7.36046 27.233 13.0425 
4.42429 27.2931 15.9375 
7.29551 27.3085 16.0941 
5.82131 28.6548 14.4687 
5.93856 25.8521 14.6109 
10.0885 27.2618 13.0384 
11.5819 25.7746 14.3338 
8.74902 25.866 14.3454 
10.151 27.3436 15.5541 
15.778 27.3268 12.7228 
12.8204 27.1934 12.9265 
14.1978 25.9107 14.226 
14.2864 28.7099 14.2423 
12.7877 27.1741 15.8214 
15.5753 27.2259 15.5692 
18.6362 27.2188 12.856 
17.3383 28.6431 14.2295 
17.104 25.8544 14.2157 
18.614 27.1347 15.7018 
20.1018 25.7781 14.3621 
20.0572 28.6613 14.5153 
24.3411 27.1986 12.7434 
21.4992 27.2859 13.0182 
22.7205 25.8374 14.2518 
21.6407 27.5091 15.9301 
24.3487 27.2553 15.6932 
27.1912 27.2917 12.8802 
25.761 25.8715 14.1659 
27.0625 27.2547 15.7663 
28.6995 25.853 14.5229 
1.22734 1.45766 18.6625 
2.81536 2.9522 17.1205 
2.90876 0.113385 17.3527 
2.62671 2.79186 20.0256 
4.10366 1.47181 18.6594 
7.23596 1.3684 18.8031 
5.60946 2.73237 17.272 
5.76461 0.0164918 17.3417 
5.64764 2.98433 20.1642 
10.1669 1.49175 18.5676 
8.70287 3.04207 17.11 
11.3569 2.81205 17.2036 
11.5191 0.121095 17.0535 
8.77086 0.0624972 17.2225 
8.52988 2.74598 20.0014 
11.6068 2.96632 20.1051 
11.3332 0.0344674 20.0269 
8.57958 0.0305565 20.1084 
12.9026 1.27197 18.619 
15.6774 1.30075 18.6338 
14.2759 2.75083 17.0637 
12.8632 4.05762 18.5362 
14.2993 2.71081 20.0224 
18.6968 1.44726 18.6851 
17.0066 2.96139 17.3733 
20.1999 3.00512 17.1109 
19.9755 0.0532315 17.1326 
17.3454 2.7118 20.0483 
20.0305 2.94704 20.0982 
21.5964 1.47553 18.7434 
22.8407 2.79934 17.285 
24.4508 1.53583 18.6669 
23.1321 0.129048 17.0875 
22.7325 2.88673 20.2629 
23.0656 0.184478 19.9095 
28.6782 2.84529 17.1858 
27.2484 1.40175 18.66 
25.7595 2.9814 17.2999 
25.8395 0.088092 17.1895 
28.615 2.87748 20.1167 
25.7069 2.93079 20.0918 
1.30633 4.30349 18.7539 
1.1519 7.28838 18.5038 
2.77825 5.73317 17.1384 
3.00314 5.56227 20.1165 
4.38249 4.28533 18.7098 
4.45388 7.30647 18.6356 
7.24618 4.18639 18.6485 
5.70398 5.70096 17.4076 
7.141 6.9818 18.6271 
5.72137 5.67791 19.9323 
9.82316 4.30598 18.6581 