ITEM: TIMESTEP
72041
ITEM: NUMBER OF ATOMS
2001
ITEM: BOX BOUNDS pp pp pp
0.0000000000000000e+00 2.8712000000000000e+01
0.0000000000000000e+00 2.8712000000000000e+01
0.0000000000000000e+00 2.8712000000000000e+01
ITEM: ATOMS x y z c_cna 
1.43649 1.4452 1.42303 3 
2.87134 2.88109 2.85848 3 
0.00189185 2.88185 2.85774 3 
2.87152 0.00949763 2.85919 3 
0.00143103 0.00990473 2.8585 3 
4.30668 1.44506 1.4234 3 
7.17747 1.44546 1.4234 3 
5.74131 2.88158 2.85814 3 
5.74212 0.00962893 2.85908 3 
10.0475 1.44676 1.42214 3 
8.61203 2.88274 2.85781 3 
11.4811 2.88595 2.8551 3 
8.61344 0.0101814 2.85924 3 
11.4823 0.0123988 2.85662 3 
12.9184 1.44859 1.42054 3 
15.7913 1.45012 1.41949 3 
14.3531 2.88823 2.85295 3 
14.3538 0.0152876 2.85427 3 
18.6661 1.45148 1.41804 3 
17.2279 2.89 2.85126 3 
20.1047 2.8917 2.84937 3 
17.23 0.0183461 2.85241 3 
20.109 0.0199136 2.8489 3 
22.9799 2.89095 2.84948 3 
24.4103 1.44784 1.41904 3 
21.541 1.45162 1.41659 3 
22.9767 0.0127136 2.85262 3 
27.279 1.44605 1.42163 3 
25.8458 2.88457 2.85515 3 
25.8443 0.0108637 2.85648 3 
1.43657 4.31689 1.4224 3 
1.43654 7.18828 1.42218 3 
2.87121 5.75275 2.858 3 
0.00204265 5.7534 2.85756 3 
4.30629 4.31674 1.42275 3 
7.17671 4.31741 1.42261 3 
4.30616 7.1882 1.42247 3 
7.17664 7.18855 1.42253 3 
5.741 5.75326 2.85775 3 
10.0469 4.31903 1.42138 3 
10.0476 7.18918 1.42209 3 
8.6119 5.75401 2.85769 3 
11.4829 5.75514 2.85688 3 
12.9183 4.3204 1.42015 3 
15.7911 4.32138 1.41915 3 
12.9193 7.18964 1.42157 3 
15.7915 7.19004 1.42107 3 
14.355 5.75583 2.85614 3 
18.6647 4.32225 1.41815 3 
18.6641 7.1904 1.42052 3 
17.2279 5.75645 2.85537 3 
20.1015 5.75717 2.85465 3 
21.5388 4.32275 1.4174 3 
21.5369 7.19066 1.42012 3 
22.9748 5.75735 2.85458 3 
24.4089 7.19044 1.42028 3 
24.4112 4.32158 1.41814 3 
27.2796 4.31839 1.42095 3 
27.2792 7.18927 1.42129 3 
25.8452 5.7555 2.85615 3 
1.43651 10.0591 1.42208 3 
2.87127 8.62385 2.85787 3 
2.8713 11.4945 2.8578 3 
0.00178961 11.4942 2.85754 3 
0.00183071 8.62408 2.85759 3 
4.30626 10.0591 1.42244 3 
7.17676 10.059 1.42258 3 
5.7413 8.62392 2.85793 3 
5.74134 11.4942 2.8579 3 
10.0479 10.0589 1.42241 3 
8.61224 8.62409 2.85802 3 
11.4837 8.62427 2.85784 3 
8.61228 11.4939 2.85799 3 
11.4837 11.4936 2.85782 3 
12.9196 10.0589 1.42212 3 
15.7916 10.0589 1.42177 3 
14.3556 8.62441 2.85756 3 
14.3556 11.4935 2.85753 3 
18.6639 10.059 1.42136 3 
17.2279 8.6246 2.85716 3 
20.1003 8.62481 2.85678 3 
17.2278 11.4934 2.85714 3 
20.1003 11.4933 2.85677 3 
21.5362 10.0591 1.42106 3 
22.9726 8.62497 2.85663 3 
22.9726 11.4933 2.85664 3 
24.4081 10.0591 1.42105 3 
27.2788 10.0591 1.42151 3 
25.8439 8.62463 2.85707 3 
25.8438 11.4936 2.85701 3 
1.43656 12.9299 1.42205 3 
1.43662 15.8012 1.42229 3 
2.87129 14.3654 2.85789 3 
0.00199171 14.3648 2.85742 3 
4.30646 15.8013 1.42267 3 
4.30629 12.93 1.4224 3 
7.17674 12.9295 1.42248 3 
7.17689 15.8006 1.42257 3 
5.74113 14.3648 2.8577 3 
10.0476 12.9287 1.42205 3 
10.047 15.799 1.42132 3 
8.61201 14.364 2.85766 3 
11.4829 14.3628 2.85684 3 
12.9192 12.9282 1.42152 3 
15.7914 12.9279 1.42103 3 
12.9182 15.7975 1.42005 3 
15.7908 15.7966 1.41909 3 
14.3548 14.3621 2.85611 3 
18.664 12.9276 1.42049 3 
18.6645 15.7958 1.41812 3 
17.2277 14.3615 2.85535 3 
20.1013 14.3609 2.8546 3 
21.5367 12.9275 1.4201 3 
21.5386 15.7954 1.41737 3 
22.9746 14.3608 2.85453 3 
24.411 15.7966 1.41807 3 
24.4088 12.9278 1.42025 3 
27.2792 12.929 1.42122 3 
27.2795 15.7998 1.42084 3 
25.845 14.3627 2.85609 3 
1.43653 18.6728 1.42289 3 
2.87144 17.2369 2.85834 3 
2.87162 20.1084 2.85909 3 
0.0018623 17.2362 2.8576 3 
0.00141931 20.108 2.8584 3 
4.30684 18.6729 1.42333 3 
7.17766 18.6725 1.42337 3 
5.74148 17.2364 2.85811 3 
5.74226 20.1083 2.85906 3 
10.0476 18.6713 1.42208 3 
8.61217 17.2352 2.85781 3 
11.4811 17.232 2.85506 3 
8.61356 20.1078 2.85926 3 
11.4823 20.1057 2.85658 3 
12.9183 18.6695 1.42049 3 
15.7911 18.6679 1.41944 3 
14.3529 17.2297 2.85289 3 
14.3536 20.1028 2.8542 3 
18.6658 18.6666 1.41799 3 
17.2277 17.228 2.85118 3 
20.1045 17.2264 2.84931 3 
17.2298 20.0997 2.85235 3 
20.1088 20.0982 2.84887 3 
21.5408 18.6665 1.41654 3 
24.4101 18.6702 1.41895 3 
22.9797 17.2272 2.84943 3 
22.9766 20.1053 2.85258 3 
27.2789 18.672 1.42152 3 
25.8457 17.2335 2.85506 3 
25.8442 20.1071 2.8564 3 
1.43647 21.544 1.42348 3 
2.87172 22.9795 2.8596 3 
1.43644 24.4149 1.42371 3 
0.00119052 22.9794 2.85896 3 
4.30723 24.4149 1.42417 3 
4.30716 21.5441 1.42392 3 
7.17845 21.5441 1.42425 3 
5.74273 22.9795 2.85971 3 
7.1787 24.415 1.42457 3 
10.049 21.5438 1.42356 3 
8.61467 22.9795 2.86042 3 
11.4846 22.9794 2.85907 3 
10.0496 24.4151 1.42412 3 
12.9205 21.5433 1.42306 3 
15.793 21.5415 1.42287 3 
14.3579 22.9786 2.85929 3 
15.7951 24.4151 1.42551 3 
12.9217 24.4151 1.42434 3 
18.6666 21.5401 1.42119 3 
17.2325 22.9747 2.85886 3 
20.1019 22.9793 2.85625 3 
18.6645 24.4151 1.42359 3 
21.5378 21.5428 1.41995 3 
24.409 21.5433 1.4201 3 
22.975 22.979 2.85417 3 
24.4088 24.415 1.42047 3 
21.5369 24.415 1.4207 3 
27.2785 21.5437 1.42221 3 
25.8436 22.9792 2.85727 3 
27.2784 24.4149 1.4225 3 
1.43645 27.2859 1.42355 3 
2.87169 25.8503 2.85966 3 
0.001203 25.8505 2.85901 3 
4.30704 27.2858 1.42396 3 
7.17831 27.2859 1.42426 3 
5.74268 25.8504 2.8597 3 
10.049 27.2863 1.42359 3 
8.61461 25.8505 2.86039 3 
11.4846 25.8508 2.85908 3 
12.9205 27.2869 1.42311 3 
15.7931 27.2886 1.4229 3 
14.3579 25.8515 2.8593 3 
18.6668 27.29 1.42123 3 
17.2326 25.8554 2.85887 3 
20.102 25.8507 2.85628 3 
21.5379 27.2873 1.41996 3 
22.9751 25.8509 2.85419 3 
24.4091 27.2867 1.42016 3 
27.2785 27.2862 1.42231 3 
25.8436 25.8507 2.85731 3 
1.43636 1.44564 4.2943 3 
1.43602 1.44586 7.16581 3 
2.87105 2.88158 5.72977 3 
0.00156871 2.88217 5.72957 3 
2.8714 0.00975879 5.73049 3 
0.00100099 0.010335 5.72994 3 
4.30634 1.44556 4.29429 3 
7.17625 1.44676 4.29325 3 
4.30601 1.44615 7.16556 3 
7.17471 1.44855 7.16393 3 
5.74041 2.88272 5.72885 3 
5.74166 0.0101747 5.72998 3 
10.0477 1.44831 4.29342 3 
10.041 1.45526 7.15902 3 
8.6093 2.88592 5.72671 3 
11.4827 2.88654 5.72846 3 
11.4849 0.0134701 5.73059 3 
8.61082 0.0123891 5.7279 3 
12.9134 1.45529 4.28685 3 
15.7881 1.45946 4.2827 3 
12.9197 1.45337 7.16551 3 
15.7893 1.45744 7.15735 3 
14.3531 2.88947 5.72534 3 
14.3413 0.030773 5.71273 3 
18.6699 1.4637 4.27868 3 
18.6766 1.46295 7.15264 3 
17.2293 2.891 5.72324 3 
20.1086 2.89443 5.72076 3 
20.1396 0.0537197 5.68969 3 
17.229 0.0420105 5.70363 3 
21.5534 1.46556 4.27591 3 
24.4127 1.4516 4.28844 3 
21.5506 1.4637 7.15947 3 
22.9799 2.89172 5.72475 3 
22.9803 0.0198898 5.72034 3 
24.4112 1.4515 7.16339 3 
27.2791 1.44708 4.29291 3 
27.2783 1.44717 7.1652 3 
25.8454 2.88502 5.72809 3 
25.8439 0.0124386 5.7278 3 
1.43646 4.31735 4.29379 3 
1.43646 7.18862 4.2936 3 
1.43611 4.31757 7.16554 3 
1.43617 7.18878 7.16548 3 
2.87091 5.75317 5.72942 3 
0.00182374 5.75363 5.72952 3 
7.17553 4.319 4.29261 3 
4.30586 4.31749 4.29356 3 
4.30588 7.18871 4.29347 3 
7.17629 7.18925 4.29331 3 
4.30532 4.31813 7.16507 3 
7.1743 4.3204 7.1639 3 
4.30548 7.18909 7.16513 3 
5.74035 5.75414 5.72885 3 
7.1758 7.18975 7.1649 3 
10.0471 4.32 4.29288 3 
10.0477 7.18958 4.29346 3 
10.0456 4.32181 7.16357 3 
8.61108 5.75515 5.72852 3 
10.0474 7.18989 7.16513 3 
11.4833 5.75539 5.72901 3 
12.918 4.32183 4.29137 3 
15.7911 4.32269 4.2902 3 
12.9195 7.18988 4.2932 3 
15.7918 7.19005 4.29279 3 
12.9192 4.32133 7.16492 3 
15.7919 4.32111 7.1637 3 
12.9197 7.18964 7.16544 3 
14.3554 5.75557 5.72851 3 
15.7919 7.18944 7.16516 3 
18.6659 4.32403 4.28883 3 
18.6645 7.19044 4.29231 3 
18.6667 4.32233 7.16254 3 
17.2284 5.75583 5.72783 3 
18.6644 7.18977 7.16478 3 
20.1021 5.75692 5.72724 3 
21.5413 4.3253 4.28811 3 
21.5373 7.19099 4.29202 3 
24.4091 7.19073 4.29251 3 
21.5404 4.32409 7.16351 3 
24.411 4.32235 7.16476 3 
21.5369 7.19053 7.16493 3 
22.9747 5.75726 5.72792 3 
24.4087 7.19054 7.16537 3 
24.4119 4.3228 4.29062 3 
27.2797 4.31899 4.29289 3 
27.2793 7.18956 4.29325 3 
27.2792 4.31893 7.16543 3 
25.8449 5.75562 5.72892 3 
27.2789 7.18954 7.16559 3 
1.43646 10.0592 4.29356 3 
1.43619 10.0592 7.16548 3 
2.87104 8.62401 5.72942 3 
2.87105 11.4943 5.72938 3 
0.00168353 8.62417 5.72953 3 
0.00164975 11.4941 5.72948 3 
4.30612 10.0592 4.29356 3 
7.17666 10.0591 4.29362 3 
4.30579 10.0591 7.16529 3 
5.741 8.6242 5.72927 3 
7.17638 10.0591 7.1653 3 
5.74105 11.494 5.72929 3 
10.048 10.059 4.29378 3 
8.61207 8.62435 5.72939 3 
10.0479 10.059 7.16551 3 
11.4839 8.62432 5.72961 3 
8.61208 11.4937 5.72942 3 
11.4839 11.4936 5.72963 3 
12.9198 10.0589 4.29371 3 
15.7918 10.059 4.29346 3 
12.9198 10.0589 7.16567 3 
14.3558 8.62429 5.72949 3 
15.7918 10.059 7.16549 3 
14.3558 11.4936 5.7295 3 
18.664 10.059 4.29314 3 
20.1003 8.62464 5.72893 3 
17.228 8.62435 5.7292 3 
18.6639 10.059 7.16526 3 
17.2279 11.4936 5.72919 3 
20.1002 11.4935 5.72894 3 
21.5363 10.0591 4.29294 3 
24.4081 10.0591 4.29309 3 
21.536 10.0591 7.16528 3 
22.9725 8.62489 5.72906 3 
22.9724 11.4933 5.72905 3 
24.4078 10.0591 7.16551 3 
27.2788 10.0591 4.2934 3 
25.8437 8.62468 5.72938 3 
27.2785 10.0592 7.16562 3 
25.8436 11.4936 5.72935 3 
1.43649 12.9296 4.29351 3 
1.43647 15.8008 4.29365 3 
1.43619 12.9295 7.16546 3 
1.43614 15.8006 7.16553 3 
2.87093 14.365 5.72936 3 
0.00180772 14.3646 5.72941 3 
4.30597 12.9295 4.29344 3 
4.30594 15.8006 4.29351 3 
7.17636 12.9289 4.29334 3 
7.17568 15.799 4.29261 3 
4.30553 12.9292 7.16518 3 
4.30538 15.8 7.16508 3 
7.17586 12.9284 7.16498 3 
5.74043 14.364 5.72886 3 
7.17442 15.7976 7.16396 3 
10.0478 12.9284 4.29348 3 
10.0472 15.798 4.29288 3 
10.0474 12.9281 7.1652 3 
8.61117 14.3629 5.72857 3 
10.0457 15.7962 7.16364 3 
11.4833 14.3626 5.72907 3 
15.7909 15.7952 4.29016 3 
12.9194 12.928 4.29321 3 
15.7916 12.9279 4.29278 3 
12.9179 15.7961 4.29137 3 
12.9196 12.9283 7.16551 3 
15.7918 12.9285 7.16517 3 
12.9191 15.7966 7.16498 3 
14.3553 14.3624 5.72853 3 
15.7917 15.7969 7.16372 3 
18.6643 12.9276 4.29228 3 
18.6656 15.794 4.28879 3 
18.6643 12.9283 7.16479 3 
17.2282 14.3621 5.72785 3 
18.6664 15.7957 7.16253 3 
20.1019 14.3612 5.72721 3 
21.5372 12.9272 4.292 3 
21.5411 15.7928 4.28806 3 
24.409 12.9275 4.29249 3 
24.4117 15.7953 4.29058 3 
21.5368 12.9277 7.16491 3 
21.5402 15.794 7.16347 3 
22.9745 14.3609 5.72788 3 
24.4086 12.9277 7.16532 3 
24.4109 15.7958 7.16475 3 
27.2792 12.9287 4.29319 3 
27.2796 15.7992 4.2928 3 
27.2789 12.9287 7.16555 3 
25.8448 14.3626 5.72888 3 
27.2791 15.7992 7.1654 3 
1.4364 18.6723 4.29421 3 
1.43607 18.6721 7.16582 3 
2.87109 17.2365 5.72972 3 
2.87149 20.1081 5.73046 3 
0.00157674 17.2359 5.72951 3 
0.00101291 20.1075 5.72993 3 
4.30645 18.6724 4.29423 3 
7.1764 18.6712 4.29327 3 
4.30609 18.6718 7.16559 3 
5.7405 17.2353 5.72888 3 
7.17479 18.6694 7.16402 3 
5.74176 20.1078 5.73003 3 
10.0478 18.6697 4.29341 3 
8.6094 17.2321 5.72676 3 
10.0411 18.6628 7.15909 3 
11.4827 17.2315 5.72847 3 
8.6109 20.1056 5.72797 3 
11.4849 20.1046 5.73064 3 
15.7878 18.6586 4.28262 3 
12.9133 18.6628 4.2868 3 
12.9197 18.6647 7.16556 3 
14.3529 17.2285 5.72532 3 
15.7891 18.6606 7.15736 3 
14.3412 20.0873 5.71274 3 
18.6696 18.6543 4.27859 3 
17.2291 17.227 5.72318 3 
18.6763 18.655 7.15262 3 
20.1083 17.2236 5.72069 3 
17.2288 20.076 5.70361 3 
20.1394 20.0643 5.68967 3 
21.5532 18.6525 4.27587 3 
24.4125 18.6664 4.28841 3 
21.5504 18.6543 7.15946 3 
22.9798 17.2263 5.72469 3 
22.9802 20.0981 5.7203 3 
24.4111 18.6665 7.16339 3 
27.279 18.6709 4.29283 3 
25.8453 17.233 5.72807 3 
27.2783 18.6708 7.16522 3 
25.8439 20.1055 5.72781 3 
1.43629 21.5438 4.29492 3 
1.43624 24.4149 4.29526 3 
1.43599 21.5436 7.16629 3 
2.87169 22.9794 5.73109 3 
1.43595 24.4149 7.16656 3 
0.000603622 22.9792 5.73056 3 
4.30701 21.544 4.29512 3 
4.3072 24.4149 4.29547 3 
7.17781 21.5437 4.29472 3 
7.17831 24.415 4.29528 3 
4.30712 21.5437 7.16663 3 
7.17732 21.5432 7.1661 3 
5.74273 22.9795 5.73108 3 
7.17855 24.415 7.16732 3 
4.30753 24.4149 7.16713 3 
10.0503 21.5434 4.29606 3 
10.0516 24.415 4.29728 3 
10.0441 21.5391 7.16161 3 
8.61336 22.9793 5.73029 3 
11.4897 22.9797 5.73544 3 
10.0478 24.415 7.16551 3 
15.8011 24.415 4.29359 3 
12.9158 21.5392 4.2899 3 
15.792 21.5341 4.28667 3 
12.9198 24.4151 4.29365 3 
12.9278 21.5417 7.17365 3 
15.7593 21.4982 7.11574 3 
14.3463 22.9698 5.71893 3 
12.9374 24.415 7.18329 3 
15.7961 24.415 7.06309 5 
18.6786 21.5271 4.28131 3 
18.6635 24.415 4.297 3 
18.7609 21.4398 7.0681 3 
17.2499 22.9483 5.72011 3 
20.1042 22.9895 5.72492 3 
18.6118 24.415 7.21724 5 
21.5427 21.5432 4.28642 3 
24.4092 21.5427 4.29139 3 
24.4085 24.4149 4.29234 3 
21.5416 24.415 4.28765 3 
21.5477 21.527 7.15048 3 
22.9729 22.9792 5.72731 3 
24.4056 24.4149 7.16474 3 
24.4079 21.5399 7.16258 3 
21.5321 24.4149 7.16576 3 
27.278 21.5433 4.29391 3 
27.2777 24.4149 4.29436 3 
27.2771 21.5427 7.16538 3 
25.8422 22.9788 5.72941 3 
27.2765 24.4149 7.16582 3 
1.43624 27.286 4.29498 3 
1.43594 27.2862 7.16627 3 
2.87166 25.8504 5.73109 3 
0.000588382 25.8506 5.73056 3 
4.30694 27.2859 4.29514 3 
7.17774 27.2862 4.29469 3 
4.30708 27.2861 7.16658 3 
5.7427 25.8504 5.73107 3 
7.17727 27.2868 7.16605 3 
10.0503 27.2867 4.29603 3 
8.61332 25.8507 5.73025 3 
10.0441 27.2909 7.16156 3 
11.4897 25.8504 5.73541 3 
12.9159 27.2909 4.2899 3 
15.7921 27.296 4.28669 3 
12.9278 27.2883 7.17361 3 
14.3463 25.8602 5.71894 3 
15.7594 27.3317 7.1157 3 
18.6788 27.3029 4.28136 3 
17.25 25.8817 5.7201 3 
18.761 27.3901 7.06809 3 
20.1043 25.8404 5.72493 3 
21.5429 27.2868 4.28643 3 
24.4092 27.2872 4.29142 3 
21.5478 27.3029 7.1505 3 
22.9729 25.8506 5.72731 3 
24.408 27.2899 7.16254 3 
27.2781 27.2865 4.29393 3 
25.8422 25.851 5.72939 3 
27.2771 27.287 7.16532 3 
2.87068 2.88187 8.6014 3 
0.0010831 2.88208 8.60156 3 
2.8712 0.0100709 8.60178 3 
0.000436818 0.0103345 8.60148 3 
1.43565 1.44588 10.0374 3 
2.87021 2.88202 11.4733 3 
0.000660838 2.88179 11.4734 3 
2.8708 0.0102874 11.4732 3 
9.82357e-05 0.0100233 11.4729 3 
5.73961 2.88365 8.60065 3 
4.30559 1.44666 10.0374 3 
7.17356 1.45006 10.0368 3 
5.73883 2.88438 11.4735 3 
5.74066 0.0121012 11.4741 3 
5.74136 0.0111001 8.60158 3 
8.60708 2.8882 8.59866 3 
11.4795 2.88943 8.59872 3 
8.60839 0.0152349 8.59934 3 
11.4669 0.0307249 8.58696 3 
10.0368 1.4594 10.0337 3 
8.60526 2.88992 11.4735 3 
11.4772 2.89088 11.475 3 
11.4576 0.0419464 11.4747 3 
8.60642 0.0182705 11.4756 3 
14.3557 2.88695 8.60147 3 
12.9114 1.45739 10.0351 3 
15.7915 1.4507 10.0374 3 
14.3527 2.88763 11.4762 3 
14.3456 0.045619 11.4834 3 
14.3612 0.0191577 8.60709 3 
17.2304 2.88771 8.59867 3 
20.1059 2.89102 8.59996 3 
20.1255 0.0419758 8.60023 3 
20.1162 0.0306797 11.4878 3 
17.2218 0.0191125 11.4678 3 
18.6717 1.4574 10.0398 3 
17.2275 2.88692 11.4734 3 
20.1037 2.88943 11.4761 3 
17.2375 0.0456448 8.59153 3 
22.9779 2.89005 8.60148 3 
22.9748 0.0151639 11.4754 3 
21.5464 1.45941 10.0412 3 
22.9761 2.88822 11.4761 3 
24.4097 1.45007 10.038 3 
22.9767 0.0182839 8.59934 3 
25.8444 2.88447 8.60149 3 
25.8426 0.0121149 8.60077 3 
25.8419 0.0110074 11.4731 3 
27.2777 1.44667 10.0374 3 
25.8437 2.88363 11.4741 3 
2.87048 5.75343 8.6013 3 
0.00140999 5.75358 8.60162 3 
1.43569 4.31757 10.0375 3 
1.43571 7.18878 10.0375 3 
2.86999 5.75352 11.4734 3 
0.000912374 5.75338 11.4737 3 
5.73968 5.75476 8.60076 3 
4.30477 4.31852 10.0371 3 
4.30498 7.18931 10.0372 3 
7.17329 4.32136 10.0366 3 
7.17527 7.19008 10.0371 3 
5.73905 5.75516 11.4733 3 
8.61032 5.75583 8.60056 3 
11.4827 5.75555 8.60108 3 
10.0443 4.32265 10.0367 3 
10.0469 7.19 10.0374 3 
8.60947 5.75637 11.4735 3 
11.4819 5.75568 11.4741 3 
14.3556 5.75477 8.6014 3 
12.9178 4.32103 10.0376 3 
15.7916 4.31982 10.0374 3 
12.9192 7.18936 10.0377 3 
15.7915 7.18906 10.0375 3 
14.3547 5.75449 11.4742 3 
17.2283 5.75462 8.60077 3 
20.1013 5.75591 8.60087 3 
18.6653 4.32113 10.0373 3 
18.6639 7.18947 10.0372 3 
17.2275 5.75477 11.4734 3 
20.1005 5.75564 11.4738 3 
22.9738 5.75657 8.60151 3 
21.5389 4.32275 10.0382 3 
21.5363 7.19018 10.0376 3 
22.9729 5.75591 11.4743 3 
24.41 4.32146 10.0384 3 
24.4081 7.19019 10.0379 3 
25.8443 5.75528 8.60177 3 
27.2786 4.31855 10.0378 3 
27.2784 7.18937 10.0378 3 
25.8436 5.75476 11.4741 3 
2.87065 8.6241 8.60139 3 
2.87065 11.4942 8.60138 3 
0.00128874 8.6242 8.60166 3 
0.00128701 11.4942 8.60164 3 
1.43574 10.0592 10.0376 3 
2.87018 8.62412 11.4735 3 
2.87018 11.4941 11.4736 3 
0.000805958 11.4942 11.4738 3 
0.000787999 8.6241 11.4738 3 
5.74058 8.62439 8.60119 3 
5.74062 11.4938 8.60122 3 
4.30536 10.0592 10.0374 3 
7.176 10.0591 10.0374 3 
5.74015 8.62447 11.4734 3 
5.74018 11.4937 11.4735 3 
8.61175 8.62446 8.60127 3 
11.4836 8.62427 8.60156 3 
8.61176 11.4936 8.60134 3 
11.4836 11.4936 8.60161 3 
11.4832 8.62422 11.4737 3 
10.0476 10.0589 10.0376 3 
8.61129 8.62454 11.4736 3 
8.61129 11.4934 11.4736 3 
11.4832 11.4936 11.4738 3 
14.3557 8.62406 8.60158 3 
14.3557 11.4938 8.60161 3 
12.9195 10.0589 10.0377 3 
15.7915 10.0589 10.0375 3 
14.3552 8.62395 11.4736 3 
14.3552 11.4938 11.4737 3 
17.2277 8.62405 8.60131 3 
20.0999 8.62442 8.60127 3 
17.2277 11.4939 8.60133 3 
20.0998 11.4937 8.60128 3 
18.6635 10.059 10.0373 3 
17.2273 8.62406 11.4733 3 
20.0994 8.62436 11.4734 3 
17.2272 11.4938 11.4734 3 
20.0994 11.4937 11.4734 3 
22.972 8.62473 8.60154 3 
22.9719 11.4935 8.60154 3 
21.5355 10.0591 10.0375 3 
22.9715 8.62457 11.4737 3 
22.9714 11.4937 11.4737 3 
24.4073 10.0592 10.0378 3 
25.8433 8.6246 8.60177 3 
25.8432 11.4937 8.60174 3 
27.2781 10.0592 10.0378 3 
25.8427 8.62442 11.4739 3 
25.8427 11.4939 11.4739 3 
2.87052 14.3648 8.60135 3 
1.43574 12.9295 10.0376 3 
1.43573 15.8005 10.0376 3 
2.87006 14.3646 11.4735 3 
0.000922275 14.3647 11.4738 3 
0.00141814 14.3646 8.60164 3 
5.73977 14.3634 8.60087 3 
4.30505 12.9289 10.0373 3 
4.30484 15.7995 10.0372 3 
7.17532 12.928 10.0372 3 
7.17337 15.7967 10.0367 3 
5.73914 14.3629 11.4734 3 
8.61039 14.3622 8.60067 3 
11.4827 14.3624 8.60117 3 
10.0469 12.928 10.0375 3 
10.0443 15.7954 10.0368 3 
8.60955 14.3616 11.4736 3 
11.4819 14.3622 11.4742 3 
14.3555 14.3631 8.60148 3 
12.9192 12.9285 10.0378 3 
15.7914 12.9288 10.0375 3 
12.9178 15.7969 10.0377 3 
15.7914 15.7981 10.0375 3 
14.3547 14.3633 11.4743 3 
17.2281 14.3634 8.60077 3 
20.1011 14.3622 8.60087 3 
18.6637 12.9285 10.0373 3 
18.6651 15.7968 10.0373 3 
17.2273 14.3631 11.4735 3 
20.1002 14.3624 11.4738 3 
22.9736 14.3616 8.60149 3 
21.5361 12.928 10.0376 3 
21.5387 15.7953 10.0382 3 
22.9727 14.3622 11.4744 3 
24.4099 15.7966 10.0384 3 
24.408 12.928 10.0379 3 
25.8443 14.3629 8.60177 3 
27.2784 12.9289 10.0379 3 
27.2786 15.7995 10.0379 3 
25.8435 14.3634 11.4742 3 
2.87076 17.2361 8.60147 3 
2.87127 20.1078 8.60187 3 
0.00110767 17.2359 8.6016 3 
1.43573 18.672 10.0375 3 
2.87033 17.236 11.4735 3 
2.87093 20.1076 11.4734 3 
0.000128199 20.1078 11.473 3 
0.000473164 20.1075 8.60154 3 
0.000702246 17.2361 11.4736 3 
5.73973 17.2344 8.60077 3 
5.74143 20.1069 8.60164 3 
4.30569 18.6713 10.0375 3 
7.17367 18.6679 10.0369 3 
5.73897 17.2336 11.4736 3 
5.74079 20.1059 11.4742 3 
8.60718 17.2298 8.59876 3 
11.4795 17.2286 8.5988 3 
8.60846 20.1028 8.59942 3 
11.4669 20.0873 8.58704 3 
10.0368 18.6586 10.0338 3 
8.60538 17.2281 11.4736 3 
11.4773 17.2271 11.4751 3 
8.60651 20.0997 11.4756 3 
11.4576 20.0761 11.4748 3 
14.3555 17.231 8.60153 3 
14.3611 20.0989 8.60715 3 
12.9114 18.6606 10.0351 3 
15.7914 18.6673 10.0375 3 
14.3526 17.2303 11.4763 3 
14.3455 20.0724 11.4835 3 
17.2302 17.2303 8.59869 3 
20.1057 17.227 8.59995 3 
17.2374 20.0723 8.59158 3 
20.1253 20.076 8.60026 3 
18.6715 18.6605 10.0399 3 
17.2272 17.231 11.4735 3 
20.1034 17.2285 11.4761 3 
17.2217 20.0988 11.4678 3 
20.1161 20.0872 11.4879 3 
22.9778 17.228 8.60149 3 
22.9766 20.0996 8.59939 3 
21.5462 18.6585 10.0412 3 
22.9759 17.2297 11.4762 3 
22.9747 20.1027 11.4755 3 
24.4096 18.6678 10.0381 3 
25.8444 17.2335 8.60149 3 
25.8425 20.1057 8.60084 3 
27.2777 18.6712 10.0375 3 
25.8436 17.2343 11.4743 3 
25.8419 20.1068 11.4732 3 
2.87171 22.9793 8.60234 3 
1.43565 24.4149 10.0373 3 
1.43569 21.5435 10.0374 3 
2.87135 22.9791 11.4732 3 
5.74331 22.9792 8.60319 3 
4.30765 24.4149 10.0384 3 
4.30699 21.5432 10.038 3 
7.17708 21.5414 10.0387 3 
5.74277 22.9783 11.4745 3 
7.17964 24.415 10.0407 3 
8.61346 22.9786 8.60356 3 
11.4731 22.9698 8.59215 3 
10.0476 24.415 10.0468 3 
10.0408 21.5341 10.0378 3 
8.61291 22.9746 11.4783 3 
11.474 22.9483 11.4959 3 
14.3927 22.9926 8.63869 5 
15.0424 24.415 10.7866 5 
12.8171 24.415 10.0421 5 
14.2053 22.5773 11.6236 5 
15.7914 21.5808 10.0375 5 
12.8697 21.4983 10.0053 3 
17.3775 22.5774 8.45146 5 
20.1089 22.9482 8.57919 3 
16.5405 24.415 9.2883 5 
18.7658 24.415 10.0329 5 
18.7131 21.4982 10.0697 3 
20.1099 22.9697 11.4827 3 
17.1902 22.9926 11.4362 5 
22.9702 22.9745 8.59668 3 
24.4036 24.4149 10.0341 3 
22.9697 22.9785 11.4712 3 
24.4062 21.5413 10.0362 3 
21.5423 21.534 10.0371 3 
21.5354 24.4149 10.028 3 
28.712 22.979 8.60157 3 
25.8405 22.9782 8.60034 3 
28.7117 22.9792 11.4724 3 
27.2756 24.4149 10.0363 3 
27.2763 21.5431 10.0368 3 
25.84 22.9792 11.4716 3 
2.87168 25.8506 8.6023 3 
2.87131 25.8507 11.4732 3 
1.43564 27.2863 10.0373 3 
5.74329 25.8507 8.60317 3 
7.17701 27.2886 10.0386 3 
4.30692 27.2867 10.0379 3 
5.74272 25.8516 11.4745 3 
8.61344 25.8515 8.60353 3 
11.4731 25.8602 8.59212 3 
10.0407 27.2959 10.0378 3 
8.61288 25.8554 11.4783 3 
11.474 25.8817 11.4958 3 
14.3927 25.8374 8.63867 5 
12.8698 27.3317 10.0052 3 
15.7915 27.2492 10.0374 5 
14.2053 26.2527 11.6236 5 
17.3776 26.2526 8.45139 5 
20.109 25.8816 8.57919 3 
20.11 25.8602 11.4827 3 
18.7132 27.3317 10.0697 3 
17.1902 25.8374 11.4362 5 
22.9703 25.8553 8.59664 3 
24.4062 27.2885 10.0361 3 
22.9697 25.8514 11.4712 3 
21.5424 27.2959 10.0371 3 
28.712 25.8507 8.60154 3 
25.8405 25.8516 8.60029 3 
25.84 25.8506 11.4715 3 
27.2763 27.2867 10.0368 3 
28.7116 25.8505 11.4724 3 
1.43526 1.44574 12.909 3 
0.000234956 2.88138 14.345 3 
2.86967 2.88201 14.3453 3 
1.43482 1.44545 15.7806 3 
2.8702 0.0102128 14.3449 3 
4.30491 1.44703 12.9097 3 
7.17201 1.45139 12.9116 3 
5.73781 2.88485 14.3469 3 
5.73925 0.0123553 14.3472 3 
4.30406 1.44692 15.7821 3 
7.17046 1.45146 15.7866 3 
10.0326 1.46359 12.9156 3 
8.60328 2.89153 14.3504 3 
10.0298 1.4654 15.7992 3 
11.4436 0.0536377 14.3854 3 
8.6028 0.0198213 14.3548 3 
11.4747 2.89422 14.3543 3 
12.9066 1.46286 12.9224 3 
15.7938 1.45738 12.9175 3 
14.3539 2.89085 14.3518 3 
12.9134 1.46354 15.7964 3 
15.7952 1.45933 15.7923 3 
14.3542 0.041931 14.3714 3 
18.6634 1.45328 12.9093 3 
17.2302 2.88938 14.3495 3 
18.6699 1.45517 15.788 3 
20.1005 2.88642 14.3463 3 
20.0983 0.0133852 14.3441 3 
17.2419 0.0306916 14.3621 3 
21.5422 1.45519 12.9157 3 
24.4086 1.44846 12.9107 3 
21.5356 1.44819 15.7812 3 
24.407 1.4466 15.7814 3 
22.9739 2.88583 14.3479 3 
22.9724 0.0122606 14.3467 3 
27.2773 1.44602 12.9091 3 
25.8429 2.88259 14.3458 3 
27.2769 1.44538 15.7804 3 
25.8416 0.0100359 14.3447 3 
28.7118 0.00961249 14.3443 3 
1.43521 4.31744 12.9094 3 
1.43522 7.18867 12.9096 3 
0.000381285 5.75304 14.3455 3 
1.43478 4.31717 15.7811 3 
1.4348 7.18846 15.7814 3 
2.86951 5.75346 14.3455 3 
7.17222 4.32215 12.9103 3 
4.30416 4.31879 12.9096 3 
4.30449 7.18941 12.9095 3 
7.17466 7.19034 12.9098 3 
5.73838 5.75544 14.3462 3 
4.30402 7.18937 15.7818 3 
4.30355 4.31879 15.7821 3 
7.17136 4.32256 15.7845 3 
7.17417 7.19048 15.7826 3 
10.0428 4.32387 12.9115 3 
10.0463 7.19027 12.9102 3 
8.60863 5.75699 14.3472 3 
11.4811 5.75664 14.3478 3 
10.042 4.32505 15.787 3 
10.0459 7.19069 15.7831 3 
15.7922 4.32258 15.7847 3 
15.7913 4.32102 12.9112 3 
12.9165 4.32213 12.9124 3 
12.9187 7.18955 12.9102 3 
15.7912 7.18932 12.9098 3 
14.3548 5.75563 14.3471 3 
12.9174 4.3238 15.7862 3 
12.9187 7.1902 15.7828 3 
15.7914 7.18991 15.7821 3 
18.664 4.3213 12.9099 3 
18.6634 7.18968 12.9094 3 
18.6653 4.32173 15.7834 3 
18.6637 7.18983 15.7816 3 
17.2278 5.75551 14.3463 3 
20.0999 5.75538 14.3457 3 
24.409 4.32037 12.9109 3 
21.5376 4.3218 12.9112 3 
21.5358 7.18997 12.9097 3 
24.4075 7.18976 12.91 3 
22.9721 5.75512 14.3462 3 
21.5361 4.31989 15.7818 3 
21.5355 7.18956 15.7813 3 
24.4069 7.18917 15.7814 3 
24.4077 4.31888 15.7821 3 
27.278 4.31804 12.9097 3 
27.2779 7.18906 12.9098 3 
25.8429 5.75403 14.346 3 
27.2774 4.31732 15.7812 3 
27.2773 7.18858 15.7814 3 
1.43527 10.0591 12.9097 3 
2.86975 11.4941 14.3457 3 
1.43484 10.0591 15.7814 3 
2.86974 8.62404 14.3456 3 
0.00029521 11.4943 14.3457 3 
0.000302305 8.62391 14.3456 3 
4.30493 10.0591 12.9096 3 
7.17557 10.059 12.9097 3 
5.73965 8.62451 14.3458 3 
4.30452 10.059 15.7817 3 
7.1752 10.0589 15.7821 3 
5.73972 11.4935 14.3459 3 
10.0472 10.0589 12.9098 3 
11.4828 11.4933 14.3462 3 
8.61084 8.62466 14.3461 3 
10.0469 10.0589 15.7822 3 
8.61085 11.4932 14.3462 3 
11.4828 8.62441 14.3461 3 
12.9191 10.0589 12.9098 3 
15.7911 10.0589 12.9095 3 
14.355 11.4935 14.3459 3 
12.9191 10.0588 15.7819 3 
15.7913 10.0589 15.7815 3 
14.3551 8.62416 14.3458 3 
18.6632 10.059 12.9092 3 
20.0992 11.4936 14.3452 3 
17.2272 8.62422 14.3454 3 
17.2272 11.4936 14.3454 3 
20.0993 8.62435 14.3452 3 
18.6633 10.0589 15.7811 3 
21.5352 10.0591 12.9094 3 
24.4068 10.0591 12.9097 3 
22.9711 8.62434 14.3455 3 
22.971 11.4938 14.3455 3 
21.5351 10.059 15.781 3 
24.4065 10.0591 15.7812 3 
27.2776 10.0591 12.9098 3 
25.8423 8.62417 14.3456 3 
27.2771 10.0591 15.7813 3 
25.8422 11.4941 14.3457 3 
1.43526 12.9295 12.9097 3 
1.43531 15.8006 12.9096 3 
1.43483 12.9296 15.7815 3 
1.43486 15.8008 15.7814 3 
0.000398538 14.3651 14.3457 3 
2.86961 14.3646 14.3457 3 
4.30456 12.9287 12.9097 3 
4.30429 15.7992 12.9098 3 
7.17473 12.9277 12.9099 3 
7.17233 15.7959 12.9105 3 
5.73853 14.3626 14.3464 3 
4.30373 15.7992 15.7824 3 
4.30414 12.9287 15.782 3 
7.1743 12.9274 15.7828 3 
7.17151 15.7954 15.7847 3 
10.0463 12.9276 12.9102 3 
10.0429 15.7941 12.9117 3 
11.4811 14.3612 14.3479 3 
10.046 12.9271 15.7832 3 
10.0421 15.7928 15.7872 3 
8.60873 14.361 14.3474 3 
12.9186 12.9282 12.9103 3 
15.7911 12.9285 12.9098 3 
12.9164 15.7957 12.9126 3 
15.7911 15.7969 12.9113 3 
14.3547 14.3621 14.3472 3 
12.9187 12.9275 15.7828 3 
15.7913 12.9278 15.7822 3 
12.9174 15.794 15.7863 3 
15.792 15.7953 15.7848 3 
18.6633 12.9283 12.9095 3 
18.6638 15.7966 12.91 3 
17.2276 14.3624 14.3464 3 
18.6636 12.928 15.7817 3 
18.6651 15.7962 15.7835 3 
20.0997 14.3626 14.3459 3 
21.5356 12.9282 12.9098 3 
21.5374 15.7962 12.9113 3 
24.4073 12.9284 12.9101 3 
24.4088 15.7977 12.911 3 
22.9719 14.363 14.3464 3 
21.5353 12.9285 15.7814 3 
21.5359 15.7981 15.782 3 
24.4068 12.9289 15.7816 3 
24.4075 15.7992 15.7822 3 
27.2778 12.9292 12.9099 3 
27.278 15.8 12.9099 3 
25.8428 14.3641 14.3461 3 
27.2773 12.9295 15.7815 3 
27.2773 15.8007 15.7814 3 
1.43537 18.6721 12.9091 3 
2.87035 20.1076 14.3451 3 
1.43493 18.6724 15.7807 3 
2.86985 17.236 14.3456 3 
0.000259285 17.2365 14.3452 3 
4.30507 18.6709 12.9098 3 
7.17217 18.6666 12.9118 3 
4.30429 18.671 15.7823 3 
7.17065 18.6665 15.7869 3 
5.73802 17.2331 14.3471 3 
5.7394 20.1056 14.3473 3 
10.0327 18.6544 12.9157 3 
10.0299 18.6526 15.7994 3 
11.4436 20.0644 14.3855 3 
8.60292 20.0982 14.3549 3 
8.6034 17.2264 14.3505 3 
11.4747 17.2237 14.3544 3 
12.9066 18.6551 12.9225 3 
15.7937 18.6606 12.9177 3 
14.3538 17.2271 14.3519 3 
14.3541 20.0761 14.3715 3 
12.9134 18.6544 15.7965 3 
15.7951 18.6587 15.7923 3 
18.6632 18.6647 12.9093 3 
17.2418 20.0873 14.3622 3 
18.6697 18.6628 15.788 3 
17.23 17.2285 14.3496 3 
20.1002 17.2315 14.3464 3 
20.0981 20.1046 14.3442 3 
21.5419 18.6627 12.9158 3 
24.4084 18.6694 12.9109 3 
22.9722 20.1056 14.3468 3 
21.5353 18.6698 15.7814 3 
24.4068 18.6713 15.7815 3 
22.9737 17.2321 14.3481 3 
28.7119 20.1082 14.3444 3 
27.2773 18.6718 12.9093 3 
25.8428 17.2353 14.346 3 
25.8415 20.1077 14.3447 3 
27.2768 18.6725 15.7806 3 
1.43536 21.5436 12.9085 3 
2.87068 22.9792 14.3443 3 
1.43502 21.5438 15.7799 3 
1.435 24.4149 15.7796 3 
1.43534 24.4149 12.9082 3 
4.30668 24.4149 12.909 3 
4.30623 21.5428 12.9096 3 
7.17531 21.5401 12.9125 3 
7.1776 24.415 12.9102 3 
4.30522 21.5434 15.7812 3 
4.30542 24.4149 15.7806 3 
7.17398 21.5428 15.7838 3 
7.17459 24.415 15.7828 3 
5.74104 22.9789 14.3456 3 
10.0509 24.415 12.9093 3 
10.0353 21.5272 12.9246 3 
8.6102 22.9793 14.3479 3 
10.0404 21.5433 15.7888 3 
10.0415 24.4151 15.7876 3 
11.4788 22.9897 14.3503 3 
12.9711 24.4151 12.8579 5 
12.822 21.44 13.007 3 
15.8236 21.4983 12.9593 3 
15.7868 24.415 13.0119 5 
12.9044 21.5272 15.7939 3 
15.7911 21.5342 15.7884 3 
12.9196 24.4151 15.7782 3 
14.3331 22.9484 14.355 3 
15.782 24.4151 15.7814 3 
18.6456 24.415 12.8915 3 
18.6552 21.5417 12.9012 3 
20.0934 22.9797 14.3393 3 
18.6672 21.5392 15.7849 3 
18.6633 24.415 15.7812 3 
17.2367 22.9698 14.356 3 
22.9698 22.9792 14.3444 3 
21.5389 21.5391 12.9132 3 
24.4047 24.4149 12.9074 3 
24.4059 21.5431 12.9087 3 
21.5353 24.415 12.9092 3 
21.5328 21.5434 15.7787 3 
24.4054 21.5437 15.78 3 
24.405 24.4149 15.7794 3 
21.5316 24.415 15.7774 3 
28.7116 22.9794 14.3437 3 
27.2762 21.5437 12.9081 3 
27.2758 24.4149 12.9076 3 
27.2763 21.5439 15.7796 3 
27.2761 24.4148 15.7792 3 
25.8405 22.9794 14.3436 3 
1.43531 27.2862 12.9085 3 
2.87062 25.8506 14.3443 3 
1.43495 27.2859 15.7799 3 
7.17522 27.2899 12.9124 3 
4.30613 27.2871 12.9095 3 
5.74098 25.851 14.3456 3 
4.30508 27.2865 15.7811 3 
7.17383 27.2872 15.7837 3 
11.4788 25.8404 14.3502 3 
10.0352 27.3029 12.9246 3 
10.0403 27.2868 15.7888 3 
8.61015 25.8507 14.3478 3 
12.822 27.3901 13.0069 3 
15.8236 27.3317 12.9592 3 
12.9044 27.3029 15.7938 3 
15.7911 27.2959 15.7883 3 
14.3331 25.8817 14.3549 3 
18.6553 27.2883 12.9012 3 
20.0935 25.8503 14.3393 3 
18.6673 27.2909 15.7849 3 
17.2368 25.8602 14.3559 3 
22.9699 25.8506 14.3444 3 
21.5391 27.2908 12.9131 3 
24.406 27.2867 12.9086 3 
21.5329 27.2865 15.7786 3 
24.4055 27.286 15.7799 3 
25.8406 25.8503 14.3436 3 
27.2762 27.286 12.9081 3 
28.7116 25.8503 14.3436 3 
27.2763 27.2858 15.7796 3 
1.43461 1.44503 18.6519 3 
2.86922 2.88168 17.2172 3 
2.8697 0.00975113 17.2165 3 
2.86943 2.88097 20.0883 3 