ITEM: TIMESTEP
72041
ITEM: NUMBER OF ATOMS
18
ITEM: BOX BOUNDS pp pp pp
0.0000000000000000e+00 2.8712000000000000e+01
0.0000000000000000e+00 2.8712000000000000e+01
0.0000000000000000e+00 2.8712000000000000e+01
ITEM: ATOMS x y z c_cna 
15.7961 24.415 7.06309 5 
18.6118 24.415 7.21724 5 
14.3927 22.9926 8.63869 5 
15.0424 24.415 10.7866 5 
12.8171 24.415 10.0421 5 
14.2053 22.5773 11.6236 5 
15.7914 21.5808 10.0375 5 
17.3775 22.5774 8.45146 5 
16.5405 24.415 9.2883 5 
18.7658 24.415 10.0329 5 
17.1902 22.9926 11.4362 5 
14.3927 25.8374 8.63867 5 
15.7915 27.2492 10.0374 5 
14.2053 26.2527 11.6236 5 
17.3776 26.2526 8.45139 5 
17.1902 25.8374 11.4362 5 
12.9711 24.4151 12.8579 5 
15.7868 24.415 13.0119 5 
ITEM: TIMESTEP
72042
ITEM: NUMBER OF ATOMS
18
ITEM: BOX BOUNDS pp pp pp
0.0000000000000000e+00 2.8712000000000000e+01
0.0000000000000000e+00 2.8712000000000000e+01
0.0000000000000000e+00 2.8712000000000000e+01
ITEM: ATOMS x y z c_cna 
15.7961 24.415 7.06309 5 
18.6118 24.415 7.21724 5 
14.3927 22.9926 8.63869 5 
15.0424 24.415 10.7866 5 
12.8171 24.415 10.0421 5 
14.2053 22.5773 11.6236 5 
15.7914 21.5808 10.0375 5 
17.3775 22.5774 8.45146 5 
16.5405 24.415 9.2883 5 
18.7658 24.415 10.0329 5 
17.1902 22.9926 11.4362 5 
14.3927 25.8374 8.63867 5 
15.7915 27.2492 10.0374 5 
14.2053 26.2527 11.6236 5 
17.3776 26.2526 8.45139 5 
17.1902 25.8374 11.4362 5 
12.9711 24.4151 12.8579 5 
15.7868 24.415 13.0119 5 
