ITEM: TIMESTEP
72000
ITEM: NUMBER OF ATOMS
2001
ITEM: BOX BOUNDS pp pp pp
0.0000000000000000e+00 2.8712000000000000e+01
0.0000000000000000e+00 2.8712000000000000e+01
0.0000000000000000e+00 2.8712000000000000e+01
ITEM: ATOMS x y z 
1.3941 1.41619 1.63152 
2.71107 3.00714 2.74708 
2.98027 2.75404 0.141565 
0.0695327 2.88154 0.143944 
2.75075 0.023353 0.164543 
4.182 1.34115 1.45831 
7.25762 1.42734 1.34084 
5.66321 2.839 2.88303 
5.79496 0.00573606 0.0660263 
5.74246 2.73594 0.107963 
9.85473 1.80283 1.40294 
8.5395 2.984 2.87375 
11.6046 2.83447 2.82158 
8.79466 0.0631993 2.65065 
11.3337 0.156332 2.73195 
11.4884 0.0718084 0.0433366 
11.5706 2.70602 0.178565 
12.9331 1.31884 1.53631 
15.8144 1.43461 1.39657 
14.3687 2.8934 2.69748 
14.4662 2.94655 0.219104 
18.858 1.49309 1.37297 
17.2824 2.98484 2.94621 
20.2133 3.04448 2.85378 
17.4307 0.0475586 2.7836 
17.3592 0.0852868 0.127263 
21.663 1.4745 4.07659 
23.1365 3.04063 2.58541 
24.571 1.53736 1.59468 
21.6108 1.46856 1.58219 
23.1934 0.0370745 2.86457 
22.9567 0.17317 0.230373 
23.2429 2.84727 0.210988 
28.6878 3.02275 2.81678 
27.3822 1.50917 1.83025 
25.8908 3.14763 2.78828 
26.0892 3.18732 0.141905 
1.38106 4.42279 1.41544 
1.48421 7.29902 1.31917 
2.88647 5.67348 2.81195 
0.112879 5.83578 2.80504 
2.95693 5.49227 0.0634215 
4.35409 4.2613 1.44647 
7.28706 4.48087 1.43076 
4.31316 7.27153 1.42552 
7.08687 7.36067 1.32597 
5.81499 5.81079 2.60962 
9.99751 4.34825 1.50582 
9.97872 7.20602 1.32176 
8.50591 5.90206 2.8814 
11.5073 5.73023 2.69888 
12.9915 4.42292 1.25775 
16.0235 4.37158 1.31323 
12.9576 7.28905 1.40423 
15.9867 7.14444 1.23545 
14.3365 5.54747 2.66648 
18.8869 4.23237 1.14382 
18.8921 7.34942 1.41673 
17.4969 5.90183 2.75742 
20.1802 5.90125 2.73577 
20.3353 5.66264 0.0124268 
21.6522 4.35836 1.40013 
21.5206 7.26024 1.35987 
23.2455 5.64297 3.01761 
24.4568 7.34229 1.32295 
22.9716 5.82198 0.0735829 
24.6125 4.52117 1.43923 
27.3572 4.47833 1.61219 
27.3456 7.32343 1.25224 
25.9411 5.95924 2.95202 
25.862 5.88737 0.055407 
1.52619 10.1904 1.53552 
2.947 8.54646 2.80773 
2.98407 11.5074 2.77593 
0.216693 11.3665 3.06444 
0.0518246 8.55068 2.82236 
0.0592669 11.5562 0.0430969 
4.23884 10.1587 1.21885 
7.23984 10.0085 1.50001 
5.77279 8.81969 2.83354 
5.73651 11.6405 2.84555 
5.70973 11.5339 0.0814942 
10.0868 10.1695 1.43824 
8.66163 8.55083 2.92423 
11.319 8.59729 2.84644 
8.64088 11.4807 2.96673 
11.5485 11.5161 2.83363 
13.0088 10.2106 1.26585 
15.8578 10.045 1.24657 
12.9501 9.87428 3.9551 
14.4842 8.47222 2.75904 
14.5921 11.5978 2.73099 
18.6662 10.2023 1.55495 
17.4698 8.59201 2.72888 
20.2982 8.79545 2.76556 
17.2765 11.5556 2.84858 
20.3321 11.4744 2.87255 
20.0083 11.6102 0.153103 
21.5605 10.2309 1.34943 
23.0779 8.42676 2.98367 
23.1051 11.3879 3.00922 
24.4042 10.0551 1.48033 
22.9755 11.591 0.00988969 
27.416 10.2359 1.5716 
25.8992 8.47718 2.8355 
26.015 11.3558 3.03275 
25.92 8.70753 0.0420017 
1.43282 12.9108 1.58903 
1.39448 15.7914 1.2449 
2.89218 14.4049 2.90451 
0.0617869 14.4798 2.77916 
4.27294 15.854 1.51257 
4.17486 12.9586 1.3638 
7.16215 12.8896 1.36335 
7.20357 15.8795 1.44343 
5.86187 14.5719 2.83256 
5.70153 14.4628 0.0270848 
10.0767 13.0123 1.54667 
10.0549 15.5733 1.53336 
8.51078 14.3383 3.03398 
11.4527 14.2043 2.95147 
8.59543 14.4059 0.0791582 
12.9578 12.9652 1.33408 
15.7646 12.9851 1.54389 
12.6907 15.7772 1.58609 
15.9026 15.7495 1.26203 
14.4877 14.5308 2.71836 
15.8129 15.9454 4.09914 
14.2751 14.2653 0.0870557 
18.6548 13.0926 1.50099 
18.5533 15.9807 1.27133 
17.2493 14.4281 2.90571 
20.3025 14.266 2.96146 
20.218 14.4746 0.151257 
21.7095 13.0081 1.43778 
21.573 15.8561 1.54073 
23.0975 14.3527 2.95178 
24.5252 15.8651 1.57807 
24.4075 12.8913 1.40341 
23.2383 14.4699 0.0999723 
27.3686 13.036 1.36394 
27.3766 15.7179 1.38837 
25.6039 14.3602 2.96704 
25.7419 14.4452 0.0497855 
1.35813 18.5276 1.41187 
2.82649 17.2426 2.85331 
2.90908 19.914 2.9344 
0.0529401 17.1306 3.02056 
3.00312 19.9839 0.0845349 
4.4408 18.6158 1.31558 
7.18404 18.7254 1.43279 
5.64203 17.2876 2.84593 
5.72567 20.181 3.07309 
9.93338 18.5507 1.40786 
8.59294 17.1846 2.80277 
11.2987 17.2052 2.93672 
8.65106 20.1616 2.76015 
11.5525 20.1741 2.92538 
8.56673 17.2881 0.139358 
11.4392 17.2691 0.113652 
12.7963 18.7776 1.479 
15.7227 18.8649 1.26138 
14.3305 17.4826 2.77995 
15.7811 18.693 4.09942 
14.4943 20.1525 2.76754 
14.3128 17.2047 0.137531 
18.8198 18.7437 1.3752 
17.2131 17.3703 2.73174 
20.1368 17.2161 2.73509 
17.3109 20.2054 2.91248 
20.2019 20.1778 2.85949 
20.1941 20.3363 0.144121 
17.2778 20.1213 0.0334678 
21.5197 18.6039 1.40179 
24.381 18.6618 1.45884 
23.1743 17.1465 2.89469 
22.7355 20.0982 2.85066 
23.0022 20.0943 0.160395 
22.9619 17.2757 0.0711391 
28.7045 20.3006 2.70333 
25.9537 17.1234 0.0477991 
27.2398 18.7254 1.37418 
25.9245 17.1924 2.9247 
25.9581 20.1694 2.71766 
25.8386 20.2898 0.120438 
1.53554 21.4956 1.32322 
2.80251 22.954 3.14979 
1.44729 24.4114 1.30509 
0.0440521 23.0001 2.83994 
4.24117 24.3788 1.49962 
4.39133 21.5525 1.38474 
7.25898 21.5066 1.35984 
5.55268 22.9804 2.99572 
7.16892 24.4844 1.57378 
10.0434 21.5918 1.43726 
8.69607 22.9644 2.78365 
11.646 23.0827 2.92694 
10.1512 24.4327 1.43219 
11.67 22.9228 0.0740287 
12.8632 21.4873 1.40403 
15.8227 21.5205 1.3289 
14.216 23.0391 2.77853 
15.9158 24.5138 4.04783 
15.9123 24.5269 1.31623 
12.974 24.4341 1.32102 
14.2813 22.9343 0.0441533 
18.6669 21.6763 1.58756 
17.1789 22.8515 2.85726 
20.1808 23.1605 2.78216 
18.6466 24.3238 1.31708 
17.1057 23.0471 0.00202806 
21.4895 21.6775 1.41726 
24.3151 21.5684 1.54955 
23.0697 22.9466 2.94405 
24.2617 24.3972 1.38714 
21.7986 24.5542 1.40899 
25.8314 23.1976 0.03776 
27.282 21.6111 1.50207 
25.9542 22.9709 2.89782 
27.2523 24.4791 1.4804 
28.5949 23.0498 0.0474859 
0.071019 28.7077 0.112178 
2.78994 28.627 3.03117 
3.0265 25.881 0.0338542 
1.54734 27.2752 1.40407 
2.78705 25.7366 2.95845 
0.0283083 25.8231 0.0711187 
5.76255 28.6523 2.79821 
4.11291 27.181 1.55243 
7.04037 27.3527 1.44092 
5.80128 25.9395 2.94995 
5.84477 25.804 0.20079 
9.98208 27.4501 1.26232 
8.76751 25.9114 2.8708 
11.5778 25.8408 2.97259 
11.5939 25.7447 0.0669689 
8.82715 25.7571 0.11506 
14.5394 28.5177 2.97242 
14.4384 28.5859 0.0519206 
13.0464 27.2698 1.45233 
15.9131 27.35 1.50035 
14.465 25.8175 2.80959 
14.3865 25.8899 0.0509394 
20.1711 28.6226 2.9492 
18.8736 27.4642 1.4491 
17.4066 25.8536 2.83331 
20.1141 25.7822 2.8154 
21.5203 27.3217 1.41471 
23.007 25.9283 3.05755 
24.574 27.2493 1.47605 
23.2557 26.0057 0.0181336 
26.0659 28.6911 0.0551291 
28.6305 28.5591 2.93487 
28.6525 25.9007 2.84149 
25.9449 28.6645 2.89019 
27.3242 27.2594 1.53969 
25.6598 25.821 2.92517 
25.943 25.8542 0.136084 
1.26516 1.40767 4.29669 
1.36029 1.50108 7.19192 
2.74366 2.97826 5.90387 
0.0564793 3.13227 5.84947 
2.99815 0.0419981 5.82875 
4.4446 1.5111 4.2164 
7.34894 1.48152 4.13535 
4.40381 1.43311 6.97944 
7.17081 1.42905 7.08431 
5.84979 2.99157 5.63246 
5.89295 0.156372 5.66074 
10.2021 1.52934 4.1095 
10.0055 1.41811 7.12914 
8.55156 3.00426 5.5667 
11.4701 2.73006 5.80072 
11.5621 0.0854162 5.69385 
13.0636 1.40456 4.19734 
15.7716 1.44916 4.14194 
12.9674 1.31586 7.40546 
15.6021 1.46035 7.25684 
14.4345 2.88667 5.6102 
14.2642 0.0346818 5.71669 
18.6583 1.43639 4.29506 
18.4611 1.40855 7.10479 
17.1064 2.94335 5.74551 
20.2222 2.85929 5.63847 
20.1422 0.143294 5.64087 
24.513 1.56484 4.3093 
21.6346 1.65496 6.98209 
23.0139 2.97662 5.53477 
22.9353 0.120543 5.60314 
24.3734 1.42579 7.10259 
27.4007 1.53965 4.35067 
27.4387 1.72197 7.11849 
25.8488 3.00988 5.88168 
26.0114 0.0162439 5.70344 
1.54671 4.35816 4.29088 
1.62207 7.36544 4.23149 
1.31382 4.37448 7.29688 
1.64409 7.21445 7.2196 
2.90375 5.82985 5.70223 
0.226744 5.83093 5.73393 
7.1499 4.46667 4.26086 
4.25982 4.35237 4.34584 
4.57543 7.22785 4.33254 
7.07568 7.31068 4.18973 
4.12776 4.2471 7.09426 
7.13713 4.33328 7.13741 
4.31661 7.20662 7.08701 
5.7591 5.67271 5.52902 
7.12975 7.05558 7.11137 
10.1976 4.27202 4.20606 
10.0697 7.05817 4.31159 
10.1313 4.32508 7.08932 
8.61199 5.71811 5.83865 
10.217 7.228 7.04768 
11.5124 5.58959 5.6456 
12.9867 4.25503 4.23853 
15.7152 4.30754 4.30386 
12.9322 7.0899 4.21904 
15.9024 7.05801 4.37839 
12.9607 4.12153 6.98707 
15.9095 4.30853 7.23097 
12.841 7.16916 7.0189 
14.2538 5.88241 5.69922 
15.9231 6.99013 7.30374 
18.7706 4.52441 4.26759 
18.8834 7.48397 4.1985 
18.714 4.28453 7.16857 
17.354 5.79866 5.9153 
18.7859 7.42179 7.26284 
20.0111 5.9857 5.65418 
21.4563 4.5189 4.24124 
21.6023 7.07688 4.27708 
24.5603 7.13192 4.4439 
21.5938 4.38235 7.20394 
24.4594 4.37811 7.30954 
21.5629 7.02752 7.1343 
23.0596 5.69557 5.69994 
24.4535 7.19025 7.09927 
24.6206 4.30827 4.37297 
27.3544 4.53803 4.48831 
27.3945 7.19157 4.37682 
27.3382 4.69652 7.24512 
25.964 5.8555 5.8305 
27.323 7.36128 7.13396 
1.53735 10.0754 4.21253 
1.43248 10.1336 7.23618 
2.86272 8.66732 5.83372 
2.93273 11.5645 5.7347 
0.121395 8.5628 5.80213 
0.0332259 11.4755 5.77391 
4.12902 9.95807 4.17446 
7.09401 10.1364 4.35833 
4.32488 10.1688 7.01446 
5.75841 8.61818 5.81615 
7.12991 10.0301 6.94275 
5.6759 11.6502 5.62308 
10.0687 9.90462 4.34659 
8.65477 8.53501 5.88658 
10.0738 9.75509 7.14766 
11.6076 8.77556 5.79789 
8.60756 11.3326 5.77069 
11.6033 11.3341 5.73095 
15.7766 9.82974 4.22211 
13.1082 10.0381 7.2846 
14.3924 8.39199 5.80066 
15.7516 10.104 7.01385 
14.5013 11.5655 5.76179 
18.5008 9.97391 4.23155 
20.4587 8.62618 5.72047 
17.1903 8.56639 5.60198 
18.5576 10.1425 7.12715 
17.0802 11.6782 5.7214 
20.2622 11.2487 5.78404 
21.5247 9.82229 4.31356 
24.5142 9.86659 4.34482 
21.5905 10.0704 7.34382 
22.9158 8.67133 5.74458 
23.119 11.3291 5.67745 
24.55 10.2993 7.13916 
27.3173 9.9291 4.32669 
25.9151 8.70992 5.79409 
27.3942 10.0314 7.17426 
26.0181 11.4329 5.56892 
1.39228 12.9686 4.36568 
1.54521 15.6196 4.19456 
1.33378 12.9134 7.13863 
1.47435 15.7856 7.12356 
2.81958 14.297 5.70199 
4.22259 12.873 4.20601 
4.35998 15.7172 4.29556 
7.20908 12.9239 4.24824 
6.95643 15.7281 4.40611 
4.2638 12.9719 7.08175 
4.20339 15.6515 7.03082 
7.14715 13.0203 7.20545 
5.69194 14.2251 5.69506 
7.02522 15.7572 7.1305 
10.2209 12.9138 4.38874 
9.9204 15.5772 4.38309 
9.95227 12.8954 7.11879 
8.61445 14.354 5.79233 
9.76506 15.8208 7.33756 
11.4718 14.2528 5.86947 
13.0727 12.6994 4.18434 
15.8678 12.922 4.32151 
12.8307 15.8529 4.29177 
13.0007 13.0757 7.25076 
15.7172 13.0728 7.31023 
12.9488 15.8142 7.11013 
14.5035 14.4159 5.58116 
15.7883 15.6101 7.37916 
18.697 13.0048 4.40946 
18.735 15.8862 4.18632 
18.6939 13.0291 7.10039 
17.3765 14.4802 5.77135 
18.716 15.8107 7.38601 
20.1004 14.2496 5.64234 
21.7218 12.864 4.17786 
21.5487 15.6141 4.40618 
24.4531 12.8071 4.3506 
24.3828 15.9338 4.46637 
21.3408 12.767 7.1666 
21.4535 15.6076 7.10134 
22.9106 14.153 5.74333 
24.3926 12.9422 7.27439 
24.2995 15.7637 7.06529 
27.3975 12.9622 4.21444 
27.348 15.7564 4.34884 
28.6783 14.2835 5.88765 
26.9916 12.8612 7.09395 
25.7504 14.4431 5.86611 
27.1813 15.7376 7.13049 
1.63244 18.6617 4.23576 
1.36627 18.5368 7.04352 
2.82217 17.1901 5.77639 
2.83351 20.1639 5.71182 
0.091262 17.1825 5.74065 
0.195154 20.1631 5.61035 
4.21341 18.5951 4.33945 
7.15954 18.6905 4.24862 
4.31918 18.6352 7.0806 
5.62497 17.1002 5.67702 
7.17212 18.8015 6.95289 
5.6197 20.0553 5.56165 
9.98431 18.5133 4.30619 
8.70789 17.1805 5.83703 
10.0475 18.7288 7.03897 
11.2856 17.0399 5.83431 
8.72527 20.108 5.59542 
11.5846 19.9106 5.61065 
12.9679 18.57 4.308 
12.998 18.6947 7.26239 
14.4205 17.2069 5.50675 
15.842 18.5868 7.16104 
14.1813 20.0693 5.77278 
18.6608 18.6373 4.2659 
17.0144 17.2804 5.70682 
18.6049 18.5801 7.04409 
20.1187 17.1841 5.67165 
17.2183 20.0943 5.41853 
20.1675 19.9334 5.83112 
21.6652 18.5945 4.26871 
24.4268 18.7457 4.15463 
21.5127 18.4946 7.2857 
23.0333 17.3055 5.86429 
22.8902 20.1986 5.72095 
24.3503 18.7159 7.23457 
27.4595 18.8494 4.14743 
25.9066 17.5809 5.70583 
27.1935 18.6994 7.38628 
26.2258 20.0653 5.59482 
1.53587 21.4966 4.34314 
1.5066 24.4349 4.31789 
1.38673 21.4354 7.29537 
2.77847 23.0604 5.67032 
1.42852 24.5692 7.07494 
0.118591 22.8951 5.81505 
4.1445 21.509 4.36292 
4.3826 24.4215 4.39687 
7.19312 21.6032 4.26553 
7.18692 24.5681 4.318 
4.3575 21.4571 6.97122 
7.10859 21.5033 7.02815 
5.75406 23.1619 5.72879 
7.4138 24.518 7.1226 
4.3457 24.4836 7.06537 
10.0804 21.5479 4.19315 
10.1077 24.3918 4.13353 
10.2728 21.4585 7.04327 
8.63014 22.9571 5.73111 
11.4409 23.0367 5.70794 
10.113 24.4365 7.04493 
12.874 21.4759 4.26075 
15.5705 21.5508 4.24016 
13.0445 24.3702 4.53714 
12.8653 21.5139 7.27362 
15.7227 21.4775 7.11785 
14.2361 23.0059 5.82002 
12.8305 24.3328 7.34848 
15.784 24.2357 7.16041 
18.7863 21.6222 4.48247 
18.653 24.2045 4.33396 
18.6838 21.2523 6.98559 
17.1989 22.7922 5.6075 
20.0238 22.9306 5.94853 
18.3214 24.3477 7.18347 
21.4341 21.5655 4.39289 
24.4687 21.5345 4.26281 
24.2658 24.5884 4.42242 
21.6252 24.3573 4.24732 
21.5436 21.4925 7.24696 
22.921 23.0523 5.77883 
24.3113 24.4319 7.22048 
24.4784 21.6588 7.05184 
21.5603 24.5279 7.08567 
27.2781 21.7292 4.35239 
27.1915 24.34 4.27343 
27.2933 21.6094 7.16939 
25.6372 23.0559 5.66241 
27.2251 24.3395 7.26147 
1.29088 27.2997 4.34331 
1.57482 27.3822 7.21651 
2.90585 25.8513 5.67437 
0.0167471 25.8234 5.64373 
4.32929 27.2719 4.25685 
7.33124 27.4695 4.21495 
4.22071 27.2534 7.21528 
5.72973 25.8766 5.73992 
7.23502 27.2446 7.18013 
10.1458 27.3785 4.27462 
8.77438 28.6902 5.47143 
8.80745 25.7027 5.74942 
9.95328 27.4135 7.06685 
11.6859 25.7454 5.62467 
12.9812 27.2647 4.34224 
15.9432 27.3265 4.38907 
12.7919 27.3254 7.13481 
14.4509 25.6568 5.80136 
15.7246 27.1903 7.38305 
18.5434 27.3677 4.48319 
17.1162 28.6669 5.80711 
17.255 25.7291 5.64647 
18.8777 27.2806 7.26386 
19.8926 25.6037 5.7616 
21.3508 27.2488 4.35502 
24.4302 27.4238 4.38518 
21.513 27.2869 7.08342 
22.8202 25.8862 5.73098 
24.4399 27.2645 7.08765 
27.2189 27.207 4.29584 
28.6037 28.7066 5.71407 
25.7732 25.8003 5.69591 
27.1891 27.2249 7.10814 
2.76328 2.85746 8.63685 
0.0887708 2.96248 8.75486 
3.00464 0.176953 8.55453 
0.0660697 0.112258 8.33127 
1.41019 1.32495 10.0745 
2.95046 2.74916 11.4265 
0.0341322 2.90729 11.381 
5.84432 2.75271 8.4802 
4.39541 1.58416 10.0026 
7.06478 1.25897 10.2065 
5.82103 2.79476 11.3478 
5.592 0.00266229 11.4901 
8.74064 2.97844 8.50621 
11.3749 3.04476 8.45479 
8.59019 0.0301416 8.70038 
11.3514 0.00458145 8.59283 
10.0324 1.49567 10.0369 
8.6044 2.91343 11.5017 
11.5714 2.8104 11.4959 
14.2334 3.07253 8.58367 
12.8263 1.42611 9.90316 
15.7743 1.49577 9.91339 
14.4783 2.61718 11.4382 
14.1514 0.0319076 11.472 
17.107 2.81937 8.57486 
20.2402 2.90071 8.33839 
20.2412 0.376069 8.75875 
20.1095 0.121893 11.6424 
17.1617 0.140258 11.3747 
18.6671 1.75492 10.0745 
17.2545 2.95632 11.4886 
19.9662 3.13921 11.4035 
22.9391 2.80495 8.5373 
22.9803 0.0266765 11.7287 
21.5405 1.5093 10.2921 
23.0027 2.90797 11.4937 
24.5241 1.41982 9.85207 
25.7588 2.85493 8.53333 
25.9012 0.0538216 8.34427 
25.8524 0.049298 11.5082 
27.2797 1.44717 9.93228 
25.9754 2.77366 11.5761 
2.7467 5.64606 8.59503 
0.0228073 5.92803 8.74504 
1.5616 4.36219 10.1838 
1.47142 7.2431 10.0384 
3.07657 5.62384 11.3436 
5.67893 5.68402 8.49247 
4.32313 4.32419 9.86184 
4.27734 7.20003 9.84428 
7.34966 4.20718 9.90841 
6.88021 7.23345 10.0307 
5.59223 5.66673 11.5142 
8.67903 5.76118 8.41841 
11.2967 5.78661 8.52945 
10.064 4.22462 10.059 
9.71963 7.25696 9.98561 
8.57122 5.76658 11.2712 
11.3461 5.72097 11.3804 
14.2499 5.75767 8.52221 
12.9198 4.21974 10.1702 
15.5464 4.14583 10.1048 
12.8708 7.0285 9.93468 
15.7729 7.11199 10.0543 
14.3676 5.72302 11.4347 
17.2859 5.85367 8.63027 
20.1251 5.91043 8.59144 
18.8685 4.28155 9.87506 
18.9579 7.40999 10.1282 
17.2958 5.82978 11.6254 
20.0113 5.81909 11.5917 
22.9598 5.80524 8.62896 
21.5825 4.41208 10.0811 
21.6424 7.27047 10.224 
23.0236 5.76093 11.4429 
24.5339 4.34793 10.0251 
24.4284 7.27596 10.1241 
25.8902 5.9328 8.71998 
28.6652 5.65019 11.5414 
27.2335 4.44711 9.9026 
27.2755 7.45995 10.1306 
25.9885 5.78056 11.6024 
2.85437 8.77628 8.61777 
2.8248 11.3532 8.62749 
0.154007 8.70901 8.72184 
0.0620645 11.7258 8.68459 
1.63696 10.1595 10.1374 
3.15172 8.55871 11.5223 
3.03359 11.5266 11.6089 
0.0641166 11.4644 11.4627 
0.0527662 8.81179 11.3655 
5.72692 8.55515 8.4351 
5.82514 11.596 8.42735 
4.35972 10.0504 9.93064 
7.04731 10.0692 10.0235 
5.78195 8.69044 11.345 
5.7658 11.7815 11.5622 
8.51542 8.64547 8.42499 
11.484 8.55725 8.74067 
8.55471 11.4995 8.54726 
11.4896 11.4019 8.42073 
11.1869 8.63871 11.413 
9.96213 10.1407 9.8923 
8.40354 8.76855 11.1877 
8.53953 11.4961 11.4192 
11.2914 11.4509 11.3221 
14.3685 8.44969 8.84474 
14.3805 11.4612 8.65921 
12.9087 9.92547 9.98854 
15.8233 9.96903 10.0043 
14.3264 8.51266 11.5489 
14.1634 11.5753 11.2733 
17.1082 8.78405 8.50891 
20.26 8.60722 8.6781 
17.2287 11.3749 8.6971 
19.9153 11.368 8.47561 
18.6731 10.1064 9.96286 
17.3825 8.70489 11.4385 
20.1616 8.75769 11.5576 
17.2095 11.4794 11.4936 
20.1857 11.4228 11.394 
23.0375 8.70355 8.67008 
23.1032 11.5524 8.63 
21.5831 10.0712 10.1814 
23.0845 8.70931 11.4816 
22.9675 11.446 11.5809 
24.3987 10.1679 10.2196 
25.7956 8.62728 8.61979 
25.7393 11.5264 8.47856 
27.4066 10.0195 9.94669 
25.8304 8.66376 11.5216 
25.9065 11.6207 11.5516 
2.79195 14.1917 8.58514 
1.45468 12.8296 10.2196 
1.21925 15.6777 10.0423 
2.98831 14.3196 11.5777 
0.00590028 14.3187 11.6585 
5.60117 14.444 8.5347 
4.24173 12.9603 9.99702 
4.49573 15.7471 10.0407 
6.92647 13.1361 10.0793 
7.05009 15.9902 10.1564 
5.51875 14.3101 11.6713 
8.46125 14.3133 8.71944 
11.5924 14.4961 8.57943 
9.89122 12.9212 9.92571 
10.0628 15.6185 10.0406 
8.50693 14.4824 11.4496 
11.4604 14.3537 11.3931 
14.3286 14.4162 8.8301 
12.7361 12.7535 9.80175 
15.7988 12.936 9.87556 
12.9066 15.7863 10.0329 
15.757 15.8651 10.1875 
14.1946 14.4342 11.3385 
17.3702 14.2719 8.55121 
20.0937 14.3141 8.82862 
18.6891 12.8451 10.0704 
18.5636 15.7473 9.98792 
17.1531 14.3248 11.3298 
19.9084 14.4246 11.489 
22.7965 14.2537 8.43447 
21.5224 12.812 9.96073 
21.4045 15.6979 9.97607 
22.7739 14.4488 11.5274 
24.2692 15.709 10.0605 
24.4625 12.9582 10.108 
28.4687 14.455 8.55627 
25.7272 14.3419 8.65061 
27.4263 12.8775 10.1124 
27.1328 15.796 10.0222 
26.0772 14.2836 11.4534 
2.68987 17.1384 8.4755 
2.74924 20.0807 8.57115 
0.00040875 17.2813 8.8373 
1.43569 18.7923 10.1504 
3.05355 17.3666 11.3586 
2.94168 20.3233 11.4006 
0.15048 19.9971 11.6031 
5.69769 17.3673 8.47578 
5.78955 20.1667 8.43694 
4.18961 18.7002 9.71878 
7.14109 18.7802 10.0367 
5.60124 17.2895 11.575 
5.6034 20.167 11.4666 
8.33244 17.3055 8.55038 
11.3165 17.285 8.79005 
8.66691 20.1877 8.45622 
11.5068 20.0713 8.57476 
9.80604 18.7021 10.1646 
8.35488 17.3418 11.67 
11.2043 17.1682 11.3997 
8.43384 20.3029 11.6073 
11.4356 20.2227 11.5296 
14.1899 17.3165 8.71462 
14.3675 20.047 8.74942 
12.7386 18.6612 10.3336 
15.6837 18.6098 9.98727 
14.3378 17.3361 11.5554 
14.4118 20.0144 11.5504 
17.2485 17.1614 8.71565 
20.1185 17.0769 8.76628 
17.1341 19.9898 8.29518 
20.082 19.9541 8.63482 
18.6908 18.5889 10.1384 
17.3098 17.1163 11.4945 
19.9466 17.2893 11.7087 
17.1668 20.1476 11.5269 
20.1533 19.9933 11.5511 
22.9234 17.08 8.47677 
22.969 19.9242 8.4868 
21.7178 18.5969 10.0753 
22.8008 17.1983 11.5649 
23.0179 20.0411 11.5263 
24.3639 18.4357 9.96745 
28.6756 20.0752 8.57548 
26.016 17.183 8.55101 
25.7277 20.0049 8.62228 
28.5679 17.114 11.5691 
27.2842 18.5087 10.2609 
25.6518 17.0445 11.5861 
25.826 19.7352 11.3868 
2.69259 23.1211 8.47015 
1.53933 24.3073 9.95578 
1.40461 21.5109 10.062 
2.98067 23.1958 11.2788 
5.73441 23.0762 8.44194 
4.40172 24.4181 9.93637 
4.27892 21.7349 9.8152 
7.08001 21.4754 9.86665 
5.87506 23.0541 11.3599 
8.61286 23.0934 8.67727 
11.4135 22.9371 8.48438 
9.98926 24.4728 10.1256 
9.95172 21.5783 10.0054 
8.45243 22.9468 11.5174 
11.4373 22.8284 11.2344 
14.2736 22.9192 8.65256 
14.9091 24.1629 11.0149 
12.841 24.4048 10.05 
13.9082 22.3475 11.9045 
15.8754 21.4447 10.0714 
12.9565 21.4537 10.1073 
17.5196 22.5066 8.53005 
20.2024 22.9755 8.6369 
16.4381 24.3045 9.45271 
18.685 24.362 10.0691 
18.7302 21.2393 10.1521 
20.099 22.8195 11.3562 
16.9614 23.1065 11.4258 
22.8762 22.9381 8.57136 
24.2806 24.4955 10.0394 
22.9061 22.7746 11.6382 
24.3205 21.3625 9.89992 
21.5047 21.3626 10.1259 
21.5404 24.4718 10.0589 
28.6917 22.9428 8.63583 
25.7097 23.0115 8.61801 
28.6411 23.055 11.3605 
27.1144 24.381 10.0462 
27.2561 21.3513 10.2492 
25.7006 22.9326 11.4105 
2.88817 25.8465 8.49442 
0.0670966 25.8323 8.41065 
2.84765 25.8993 11.441 
1.42077 27.278 10.0978 
3.05698 28.6429 11.4509 
5.63682 28.6102 8.62033 
5.84209 25.8433 8.48215 
7.15786 27.235 10.0798 
4.14941 27.1752 9.86214 
5.73399 25.9244 11.3865 
7.3167 24.6196 10.0191 
8.7861 25.8687 8.54209 
11.4955 25.9389 8.71229 
11.3392 28.6283 11.4321 
9.8593 27.3373 10.0655 
8.57633 28.6262 11.5994 
8.49653 25.8787 11.5769 
11.3337 25.7061 11.5638 
14.33 28.6405 8.63383 
14.346 25.75 8.78149 
12.7892 27.3705 9.93912 
15.8071 27.1197 10.2249 
14.0759 26.1588 11.3283 
17.2131 28.5962 8.49488 
17.3753 26.161 8.54057 
20.169 25.6379 8.61309 
20.0466 25.8842 11.4871 
18.6212 27.4513 10.1457 
17.2944 25.8996 11.5545 
22.8604 28.686 8.51812 
22.8714 25.9615 8.71872 
24.3329 27.457 10.0767 
23.0176 25.8875 11.5408 
21.4747 27.3392 9.98538 
25.6581 25.8926 8.55697 
25.6685 25.6885 11.4595 
27.2124 27.2557 9.71789 
28.5592 28.5513 11.2048 
28.2415 25.7918 11.2896 
1.44651 1.22105 12.6407 
0.176841 2.72445 14.1771 
2.8615 2.84347 14.2404 
1.3461 1.31447 15.698 
4.15633 1.50865 12.9528 
7.16274 1.59008 12.9578 
5.49362 2.89429 14.2148 
5.61883 0.0922636 14.3465 
4.17677 1.38556 15.635 
6.92772 1.66852 15.6362 
9.89623 1.41309 12.7885 
8.59933 3.08906 14.3033 
9.97451 1.63831 15.6489 
11.2813 0.0381173 14.3846 
8.62848 0.0146372 14.4812 
11.5483 2.78126 14.4661 
12.6559 1.34861 12.8887 
15.7058 1.25301 13.0796 
14.1192 2.64757 14.2268 
12.9472 1.3453 15.8899 
15.6228 1.4207 15.5321 
15.571 4.00577 15.6847 
18.6526 1.49724 12.9183 
17.2051 2.74658 14.219 
18.5882 1.45169 15.7681 
19.9689 3.07188 14.3912 
21.4662 1.65479 12.9627 
24.5433 1.28374 12.9918 
21.5304 1.34654 15.5898 
24.2492 1.34368 15.7137 
23.1402 2.83674 14.4278 
27.2913 1.31818 12.8189 
25.8372 2.84702 14.1603 
27.3017 1.4138 15.6833 
1.6567 4.19129 12.8866 
1.52279 7.21561 12.758 
0.226976 5.63405 14.231 
1.47542 4.30097 15.6575 
1.28531 7.20704 15.5312 
2.97989 5.70519 14.4751 
7.12775 4.38191 12.599 
4.21616 4.24856 12.7733 
4.30222 7.26691 12.9803 
7.32606 7.25312 12.8276 
5.69023 5.77221 14.1044 
4.40889 7.37942 15.7685 
4.291 4.25888 15.6939 
7.20838 4.3041 15.6324 
7.1544 7.07455 15.84 
10.0994 4.20904 13.0512 
9.93087 7.27707 12.8934 
8.72056 5.7334 14.2745 
11.4198 5.69146 14.1922 
10.1214 4.32533 15.9088 
10.0917 7.09825 15.8231 
15.6646 4.23696 12.972 
12.8992 4.28648 12.8454 
12.8513 7.20965 12.8372 
15.7338 7.3539 12.7659 
14.2966 5.72975 14.1496 
13.0617 4.27942 15.6504 
12.9219 7.1554 15.7266 
15.6829 7.19498 15.6093 
18.6095 4.32781 12.9129 
18.4571 7.24658 12.9842 
18.527 4.43798 15.7911 
18.709 7.24557 15.7595 
17.1352 5.84661 14.4472 
20.1914 5.64477 14.4095 
24.458 4.24161 12.9459 
21.5466 4.22798 12.9743 
21.5917 7.11343 12.9417 
24.3687 7.15668 13.028 
23.0842 5.73599 14.2801 
21.6603 4.24295 15.8178 
21.7215 7.12452 15.7393 
24.4426 7.34037 15.7909 
27.4627 4.22822 13.0877 
27.4151 7.27798 12.8029 
26.0355 5.78661 14.1989 
24.7125 4.36855 15.7527 
27.3349 4.21736 15.4525 
27.289 7.24414 15.7071 
1.42314 9.95194 12.9317 
2.88426 11.3282 14.3353 
1.41553 10.099 16.1021 
2.72859 8.65492 14.4403 
4.37351 9.95446 12.8914 
7.04667 10.1818 12.9292 
5.92399 8.5779 14.2054 
4.50029 9.86369 15.8177 
7.02461 9.89593 15.744 
5.80471 11.4812 14.374 
9.99293 10.0288 12.8725 
11.2838 11.263 14.2867 
8.64873 8.78904 14.2273 
9.93485 10.0336 15.8909 
8.49761 11.6883 14.3639 
11.2781 8.54843 14.405 
12.8153 9.88554 12.7911 
15.6462 10.0272 12.6083 
14.2375 11.4628 14.2352 
12.7788 10.0028 15.661 
15.6399 10.0272 15.6028 
14.2847 8.61707 14.4017 
18.6105 9.9223 12.8864 
19.9485 11.3318 14.2441 
17.1745 8.64031 14.2877 
17.1707 11.4746 14.2968 
20.0707 8.55516 14.2491 
18.5923 9.9973 15.817 
21.5119 10.2418 12.9731 
24.4726 10.0512 12.8724 
22.8856 8.8086 14.2473 
22.8963 11.6734 14.2756 
21.4542 10.0924 15.8896 
24.2648 10.0135 15.9043 
27.2567 10.1413 12.9029 
25.967 8.64449 14.2571 
28.6866 11.2511 14.6447 
27.0976 10.1129 15.9683 
25.6781 11.4634 14.5112 
28.5661 8.75138 14.4581 
1.51735 12.9494 12.9658 
1.50488 15.8399 12.8905 
1.25548 12.8313 15.9246 
1.42379 15.8941 15.8052 
0.0542401 14.3952 14.4133 
2.77811 14.253 14.5362 
4.34035 12.8745 12.9355 
4.27917 15.8667 13.0163 
7.12961 13.0172 12.9213 
7.28995 15.756 13.1032 
5.62882 14.3663 14.2915 
4.27848 15.6347 15.9214 
4.26065 12.9017 15.9143 
7.01357 12.9391 15.7785 
7.30058 15.7339 15.9349 
9.85681 13.0005 12.6574 
10.0134 15.6475 12.8813 
11.4966 14.0748 14.2403 
10.1074 12.8039 15.7203 
10.1317 15.7446 15.8202 
8.65415 14.2926 14.3746 
12.7968 12.7779 12.8042 
15.7514 12.8033 12.7654 
12.7999 15.6865 12.8129 
15.6907 15.5244 12.8378 
14.2578 14.2482 14.2232 
12.846 12.9118 15.7492 
15.6706 12.7954 15.668 
12.9818 15.6749 15.8215 
15.5099 15.478 15.7598 
18.758 12.9069 12.7648 
18.489 15.6596 13.0601 
17.1158 14.1613 14.3422 
18.5331 12.8661 15.8167 
18.6427 15.7767 15.8998 
19.9654 14.2909 14.4293 
21.3732 12.7263 12.7724 
21.3729 15.8654 12.9503 
24.5273 12.9831 12.9578 
24.2098 15.7822 12.8908 
22.8327 14.3145 14.1708 
21.3837 12.8789 15.7423 
21.4413 15.8371 15.6867 
24.2763 13.0031 15.8312 
24.2018 15.7827 15.6484 
27.2955 12.86 13.1321 
27.2134 15.6708 12.9944 
25.8038 14.285 14.3549 
27.2692 12.9997 15.9069 
27.228 15.8706 15.9707 
1.64721 18.6031 12.7904 
0.212326 20.2306 14.1524 
2.76331 20.0972 14.2365 
1.56169 18.765 15.8501 
2.84578 17.1677 14.4613 
0.146406 17.2293 14.386 
4.32653 18.599 13.1785 
6.97406 18.7016 12.943 
4.4437 18.4685 15.933 
7.25662 18.6165 15.8903 
5.66606 17.1691 14.6143 
5.77739 20.1476 14.452 
9.78914 18.8236 12.8424 
9.94248 18.6186 15.8364 
11.328 20.0013 14.5955 
8.4559 20.0862 14.4631 
8.61594 17.1647 14.5 
11.3695 17.1611 14.4354 
12.8892 18.697 13.1781 
15.9644 18.5806 12.8836 
14.3173 17.0806 14.2452 
14.4802 20.0856 14.2757 
12.9683 18.5076 15.7036 
15.6804 18.6383 15.6224 
18.4853 18.8065 12.8966 
17.1066 20.1706 14.2911 
18.6 18.7196 15.7132 
17.0343 16.9663 14.4421 
19.9555 17.1588 14.3847 
20.0319 19.83 14.4111 
21.7166 18.704 12.8723 
24.2891 18.6276 12.9082 
23.011 20.12 14.2124 
21.5764 18.6399 15.8886 
24.3698 18.8778 15.6439 
22.9477 17.1914 14.4203 
27.2825 18.4868 12.8097 
25.8289 17.1315 14.3076 
25.9805 19.9823 14.333 
27.2621 18.5314 15.6544 
1.56564 21.7589 12.8738 
0.017867 23.0128 14.1528 
2.70052 23.1322 14.2579 
1.46461 21.508 15.6676 
1.40635 24.3013 15.7197 
4.27462 24.5514 12.8785 
4.34899 21.6381 12.9481 
6.96143 21.5956 13.1326 
7.07304 24.3596 13.0876 
4.23087 21.4797 15.8569 
4.1918 24.3987 15.7711 
7.04318 21.6849 15.7716 
7.04905 24.4352 15.8818 
5.68973 23.0804 14.3883 
10.0458 24.3027 12.8756 
10.0518 21.7529 13.1474 
8.4494 22.9742 14.4186 
9.91424 21.5693 15.9114 
9.85064 24.4587 15.9423 
11.506 23.1098 14.5435 
12.9678 24.4983 12.9336 
12.5787 21.36 13.3162 
15.7856 21.7842 12.9952 
15.7528 24.4449 13.0192 
13.0051 21.6129 15.9442 
15.9065 21.5272 15.6282 
12.9441 24.43 16.0466 
14.2837 22.8732 14.427 
15.8375 24.3084 15.9166 
18.4719 24.4381 12.7558 
18.6226 21.6832 12.8321 
20.1952 23.0275 14.355 
18.5273 21.3149 15.7604 
18.8372 24.4349 15.695 
17.452 23.017 14.4067 
22.8169 22.9562 14.348 
21.5 21.4234 12.9931 
24.3109 24.113 12.8896 
24.5091 21.3443 12.8682 
21.5013 24.3772 12.9393 
21.3944 21.4536 15.7132 
24.2929 21.4488 15.8657 
24.3785 24.3017 15.7448 
21.554 24.4999 15.7115 
27.2686 21.4837 12.796 
27.1429 24.2385 12.8297 
27.3823 21.4469 15.6804 
27.0636 24.2536 15.7582 
25.8407 22.8457 14.4094 
1.33136 27.0723 12.8103 
2.89633 25.9006 14.3033 
1.37843 24.6115 12.6999 
2.86138 28.5064 14.1287 
1.28213 27.2995 15.6334 
7.08669 27.349 12.944 
4.21832 27.2352 12.7636 
5.5998 25.8156 14.2648 
4.15926 27.401 15.6905 
6.81508 27.2119 15.6971 
11.5882 25.8616 14.2989 
10.04 27.1559 12.9156 
9.97171 26.9954 15.6997 
8.45713 25.8501 14.3688 
12.8927 27.2271 12.9417 
15.783 27.0035 12.9342 
12.9109 27.3558 15.7871 
15.8459 27.3087 15.925 
14.3061 28.5983 14.372 
14.4127 25.7682 14.4547 
18.5182 27.4721 12.9968 
19.952 25.8033 14.2259 
20.0357 28.6574 14.2754 
18.6984 27.3517 15.7794 
17.3066 25.9069 14.5199 
17.1025 28.6479 14.4138 
23.0945 25.7591 14.3011 
21.4983 27.1315 12.8898 
24.4086 27.0923 12.7972 
22.995 28.5934 14.3354 
21.5249 27.1996 15.695 
24.4296 27.2058 15.8023 
25.9286 25.6961 14.1664 
27.1681 27.3484 12.8503 
25.6102 28.6297 14.3519 
28.6989 28.6361 14.269 
28.6025 25.7277 14.3535 
27.3335 27.2196 15.7942 
1.45453 1.5589 18.4155 
2.74061 2.8324 17.052 
2.78214 0.0599809 17.2685 
2.99318 2.85673 20.1307 
0.131091 2.69088 19.9527 
2.89047 0.205018 19.938 
4.35554 1.57845 18.3799 
7.15641 1.41703 18.4397 
5.70804 2.9537 17.2004 
5.47864 0.0663463 17.0379 
5.77853 2.84128 19.9389 
9.84989 1.40153 18.6031 
8.46792 2.74538 17.1371 
11.4575 2.75606 17.2916 
8.76547 2.99155 19.9509 
11.4277 2.87814 19.9405 
11.2615 0.0753417 20.1307 
12.864 1.11239 18.6395 
15.7376 1.386 18.5332 
14.2668 2.59131 17.2138 
14.4054 2.79192 20.1168 
18.8605 1.31455 18.6355 
17.1894 2.88586 17.2673 
20.1039 2.81304 17.0969 
20.0877 0.124249 17.0901 
17.0718 0.0465052 17.1389 
17.2426 2.91421 19.9599 
20.3712 2.94594 20.09 
20.2031 0.0388066 20.0181 
21.6005 1.41653 18.4705 
23.1974 2.77939 17.2367 
23.1186 2.78226 19.9776 
22.9611 0.0159819 20.0414 
24.64 1.23199 18.6027 
28.5593 3.02242 17.0255 
27.3021 1.53219 18.5889 
25.9053 2.86373 17.1849 
28.6661 0.0624367 17.1535 
25.7657 2.95424 19.9808 
1.37622 4.20475 18.711 
1.28594 7.13678 18.6651 
2.91112 5.76709 17.0293 
4.09198 4.36995 18.6303 