ITEM: TIMESTEP
73041
ITEM: NUMBER OF ATOMS
2001
ITEM: BOX BOUNDS pp pp pp
0.0000000000000000e+00 2.8712000000000000e+01
0.0000000000000000e+00 2.8712000000000000e+01
0.0000000000000000e+00 2.8712000000000000e+01
ITEM: ATOMS x y z c_cna 
1.43644 1.44504 1.42283 3 
2.87132 2.88094 2.85832 3 
0.00181056 2.88167 2.85751 3 
2.87155 0.00932578 2.85896 3 
0.00135907 0.00968158 2.85821 3 
4.30675 1.44492 1.42332 3 
7.17758 1.4454 1.42338 3 
5.74136 2.88147 2.85812 3 
5.7422 0.00949939 2.85896 3 
10.0476 1.44676 1.42219 3 
8.61206 2.88272 2.85792 3 
11.481 2.88593 2.85525 3 
8.61351 0.0101061 2.85925 3 
11.4823 0.0123779 2.85669 3 
12.9183 1.44861 1.42068 3 
15.7912 1.45017 1.41961 3 
14.353 2.88829 2.85313 3 
14.3537 0.0152765 2.85437 3 
18.6659 1.45149 1.41808 3 
17.2278 2.89004 2.85137 3 
20.1045 2.89165 2.84939 3 
17.2299 0.0183274 2.8525 3 
20.1089 0.0198312 2.84892 3 
22.9797 2.89082 2.8494 3 
24.4101 1.44773 1.41889 3 
21.5408 1.45155 1.41656 3 
22.9766 0.012576 2.8525 3 
27.2789 1.44588 1.42143 3 
25.8457 2.8844 2.85496 3 
25.8442 0.0107178 2.85627 3 
1.43654 4.31678 1.42233 3 
1.43654 7.18824 1.42216 3 
2.87119 5.75262 2.85791 3 
0.00192435 5.75328 2.8574 3 
4.30635 4.31664 1.42275 3 
7.17678 4.31737 1.42272 3 
4.30623 7.18814 1.42253 3 
7.17669 7.18855 1.42267 3 
5.74101 5.75321 2.85781 3 
10.0469 4.31902 1.42153 3 
10.0476 7.18923 1.4223 3 
8.61191 5.75401 2.85786 3 
11.4828 5.75519 2.85711 3 
12.9183 4.32046 1.42033 3 
15.7909 4.32147 1.41934 3 
12.9192 7.18974 1.42179 3 
15.7914 7.19011 1.42126 3 
14.3549 5.75591 2.85637 3 
18.6645 4.32229 1.41826 3 
18.664 7.19041 1.42066 3 
17.2278 5.75649 2.85559 3 
20.1014 5.75713 2.85473 3 
21.5386 4.3227 1.41742 3 
21.5367 7.19062 1.42017 3 
22.9746 5.75724 2.85451 3 
24.4088 7.19035 1.42025 3 
24.411 4.32147 1.41804 3 
27.2795 4.31828 1.42084 3 
27.2791 7.18921 1.42125 3 
25.845 5.7554 2.85603 3 
1.43654 10.0591 1.42216 3 
2.87125 8.62377 2.85786 3 
2.87129 11.4945 2.85788 3 
0.00177863 11.4943 2.85753 3 
0.00174152 8.62404 2.85749 3 
4.30632 10.0591 1.42257 3 
7.17682 10.0591 1.42274 3 
5.74129 8.62392 2.85803 3 
5.74136 11.4943 2.85801 3 
10.0479 10.059 1.42262 3 
8.61223 8.62414 2.85818 3 
11.4837 8.62437 2.85805 3 
8.61229 11.494 2.85815 3 
11.4837 11.4937 2.858 3 
12.9196 10.059 1.42231 3 
15.7916 10.059 1.42191 3 
14.3556 8.62451 2.85774 3 
14.3556 11.4936 2.85768 3 
18.6638 10.059 1.42145 3 
17.2278 8.62463 2.85734 3 
20.1002 8.62481 2.85684 3 
17.2278 11.4934 2.85727 3 
20.1002 11.4933 2.85678 3 
21.5361 10.059 1.42104 3 
22.9725 8.62491 2.8566 3 
22.9725 11.4933 2.85657 3 
24.408 10.0591 1.42102 3 
27.2788 10.0591 1.42153 3 
25.8437 8.62461 2.85697 3 
25.8438 11.4937 2.85696 3 
1.4366 12.93 1.42215 3 
1.43665 15.8013 1.42232 3 
2.87129 14.3656 2.85796 3 
0.00199645 14.3649 2.85742 3 
4.3065 15.8015 1.42275 3 
4.30633 12.9301 1.42252 3 
7.17681 12.9296 1.42263 3 
7.17695 15.8008 1.42264 3 
5.74117 14.365 2.85781 3 
10.0477 12.9289 1.42222 3 
10.0471 15.7991 1.42141 3 
8.61207 14.3641 2.85778 3 
11.483 14.3629 2.85699 3 
12.9193 12.9283 1.42166 3 
15.7914 12.9279 1.42112 3 
12.9184 15.7976 1.42014 3 
15.791 15.7965 1.41912 3 
14.355 14.3621 2.85623 3 
18.664 12.9276 1.42051 3 
18.6645 15.7957 1.41809 3 
17.2278 14.3615 2.85543 3 
20.1013 14.3609 2.8546 3 
21.5367 12.9274 1.42007 3 
21.5386 15.7953 1.41727 3 
22.9745 14.3609 2.85445 3 
24.4109 15.7966 1.418 3 
24.4088 12.9278 1.42019 3 
27.2791 12.929 1.42123 3 
27.2795 15.7998 1.42081 3 
25.845 14.3627 2.85602 3 
1.43651 18.6729 1.42287 3 
2.87144 17.2371 2.85838 3 
2.87163 20.1085 2.85903 3 
0.00137909 20.1081 2.85833 3 
0.00185422 17.2363 2.85758 3 
4.30688 18.673 1.42332 3 
7.17775 18.6726 1.42336 3 
5.74154 17.2366 2.85814 3 
5.74233 20.1084 2.85901 3 
10.0478 18.6713 1.42208 3 
8.61228 17.2354 2.85787 3 
11.4812 17.2321 2.85514 3 
8.61369 20.1079 2.85921 3 
11.4825 20.1056 2.85662 3 
12.9185 18.6695 1.42051 3 
15.7913 18.6679 1.41944 3 
14.3531 17.2297 2.85297 3 
14.3538 20.1028 2.85425 3 
18.6659 18.6665 1.41795 3 
17.2278 17.228 2.85122 3 
20.1045 17.2263 2.84928 3 
17.2299 20.0997 2.85239 3 
20.1089 20.0981 2.84884 3 
21.5407 18.6664 1.41646 3 
24.4101 18.6702 1.41886 3 
22.9796 17.2271 2.84937 3 
22.9765 20.1053 2.85249 3 
27.2789 18.672 1.42145 3 
25.8456 17.2335 2.85499 3 
25.8442 20.1071 2.85632 3 
1.43644 21.544 1.42332 3 
2.87172 22.9795 2.85946 3 
1.4364 24.4149 1.4235 3 
0.00114453 22.9793 2.85879 3 
4.30727 24.4149 1.42397 3 
4.3072 21.5442 1.4238 3 
7.17858 21.5441 1.42413 3 
5.7428 22.9795 2.85956 3 
7.17883 24.4149 1.42443 3 
10.0492 21.5438 1.42349 3 
8.6148 22.9795 2.86031 3 
11.4848 22.9793 2.85906 3 
10.0497 24.415 1.42403 3 
12.9206 21.5432 1.42306 3 
15.7931 21.5414 1.42289 3 
14.358 22.9786 2.85929 3 
15.7951 24.4151 1.42553 3 
12.9218 24.4151 1.42434 3 
18.6667 21.54 1.42115 3 
17.2326 22.9746 2.85885 3 
20.1019 22.9793 2.85621 3 
18.6645 24.415 1.42355 3 
21.5378 21.5427 1.41986 3 
24.409 21.5432 1.41995 3 
22.975 22.979 2.85409 3 
24.4086 24.4149 1.42031 3 
21.5369 24.4149 1.4206 3 
27.2784 21.5437 1.4221 3 
25.8435 22.9791 2.85714 3 
27.2782 24.4148 1.4223 3 
1.43641 27.2857 1.42331 3 
2.87169 25.8502 2.85941 3 
0.00114418 25.8503 2.85876 3 
4.30713 27.2857 1.42378 3 
7.17847 27.2858 1.42416 3 
5.74275 25.8503 2.85954 3 
10.0491 27.2862 1.42355 3 
8.61472 25.8504 2.86034 3 
11.4847 25.8507 2.85908 3 
12.9205 27.2869 1.42313 3 
15.7931 27.2886 1.42297 3 
14.3579 25.8515 2.85933 3 
18.6667 27.29 1.42124 3 
17.2326 25.8554 2.85888 3 
20.1019 25.8506 2.85622 3 
21.5378 27.2872 1.4199 3 
22.975 25.8508 2.85409 3 
24.409 27.2866 1.41999 3 
27.2784 27.286 1.42205 3 
25.8435 25.8506 2.85711 3 
1.4363 1.4454 4.29404 3 
1.43598 1.4457 7.16559 3 
2.87096 2.88139 5.72954 3 
0.00149891 2.88196 5.72928 3 
2.87139 0.00960309 5.73027 3 
0.000990933 0.0101583 5.72971 3 
4.30636 1.44541 4.29415 3 
7.17627 1.44664 4.29322 3 
4.30594 1.44603 7.16542 3 
7.17462 1.44845 7.1639 3 
5.74035 2.88262 5.72879 3 
5.74164 0.0100326 5.72988 3 
10.0477 1.44827 4.29352 3 
10.041 1.4552 7.1591 3 
8.60925 2.88587 5.7268 3 
11.4827 2.88652 5.72862 3 
11.4849 0.0134202 5.73069 3 
8.61079 0.0122762 5.72793 3 
12.9133 1.45528 4.28699 3 
15.788 1.45944 4.28281 3 
12.9197 1.45333 7.16562 3 
15.7893 1.4574 7.15744 3 
14.353 2.88947 5.72551 3 
14.3413 0.0307214 5.71284 3 
18.6698 1.46363 4.27874 3 
18.6766 1.46284 7.1527 3 
17.2293 2.89093 5.72333 3 
20.1085 2.89429 5.72076 3 
20.1396 0.0535961 5.68969 3 
17.229 0.041928 5.70371 3 
21.5534 1.46543 4.27587 3 
24.4126 1.45142 4.28829 3 
21.5506 1.46353 7.15944 3 
22.9799 2.89153 5.72462 3 
24.4112 1.45131 7.16324 3 
22.9803 0.0197188 5.72024 3 
27.279 1.44685 4.29264 3 
27.2784 1.44697 7.16502 3 
25.8453 2.88481 5.72789 3 
25.8439 0.012264 5.72766 3 
1.43636 4.31717 4.29356 3 
1.43636 7.18852 4.29342 3 
1.43598 4.31737 7.16526 3 
1.43599 7.18863 7.16522 3 
2.87076 5.75302 5.72925 3 
0.00166777 5.75347 5.72922 3 
4.30579 4.31736 4.29347 3 
4.30518 4.31798 7.1649 3 
7.17551 4.31894 4.29268 3 
4.30582 7.18861 4.29343 3 
7.17623 7.18923 4.29342 3 
7.1742 4.32037 7.16389 3 
4.3053 7.18899 7.165 3 
5.74023 5.75406 5.72882 3 
7.17566 7.18972 7.16494 3 
10.0471 4.32 4.29304 3 
10.0477 7.18965 4.29368 3 
10.0455 4.32182 7.1637 3 
8.61102 5.75517 5.72865 3 
10.0473 7.18995 7.16533 3 
11.4832 5.75545 5.72923 3 
12.9179 4.32186 4.29159 3 
15.791 4.32275 4.29041 3 
12.9194 7.18997 4.29345 3 
15.7917 7.19011 4.29302 3 
12.9191 4.32137 7.1651 3 
15.7919 4.32111 7.16386 3 
12.9197 7.18973 7.16569 3 
14.3554 5.75564 5.72877 3 
15.7919 7.18948 7.16535 3 
18.6658 4.32398 4.28895 3 
18.6644 7.19045 4.29242 3 
18.6667 4.32223 7.1626 3 
17.2284 5.75583 5.72801 3 
18.6644 7.18975 7.16489 3 
20.102 5.75682 5.72727 3 
21.5412 4.32519 4.28805 3 
21.5372 7.1909 4.29201 3 
24.409 7.19061 4.29239 3 
24.4117 4.32262 4.29046 3 
21.5404 4.32389 7.16342 3 
24.411 4.32214 7.16456 3 
21.5369 7.19039 7.16487 3 
22.9746 5.75707 5.72781 3 
24.4086 7.19039 7.16512 3 
27.2791 4.31872 7.16515 3 
27.2795 4.31878 4.29265 3 
27.2791 7.18947 4.29304 3 
25.8448 5.75545 5.72868 3 
27.2788 7.1894 7.1653 3 
1.43637 10.0591 4.29348 3 
1.436 10.0591 7.16526 3 
2.87088 8.62391 5.72927 3 
2.87093 11.4943 5.7293 3 
0.00149681 8.62411 5.72928 3 
0.00151768 11.4942 5.72934 3 
4.30607 10.0591 4.29358 3 
7.17661 10.0591 4.29375 3 
4.30561 10.0591 7.16517 3 
5.74089 8.62416 5.72928 3 
7.17626 10.0591 7.16535 3 
5.74095 11.494 5.72932 3 
10.048 10.0591 4.29395 3 
8.61198 8.62438 5.72952 3 
10.0479 10.059 7.1657 3 
11.4838 8.6244 5.72984 3 
8.61204 11.4937 5.72953 3 
11.4838 11.4937 5.72982 3 
12.9198 10.059 4.29392 3 
15.7918 10.059 4.29367 3 
12.9199 10.059 7.1659 3 
14.3558 8.62435 5.72974 3 
15.7919 10.059 7.16572 3 
14.3558 11.4937 5.72971 3 
18.664 10.059 4.29325 3 
20.1003 8.62462 5.72899 3 
17.228 8.62438 5.72936 3 
18.6639 10.059 7.16537 3 
17.2279 11.4937 5.72934 3 
20.1002 11.4935 5.72898 3 
21.5363 10.0591 4.29292 3 
24.408 10.0591 4.29297 3 
21.536 10.0591 7.16524 3 
22.9724 8.62481 5.72895 3 
22.9723 11.4934 5.72897 3 
24.4077 10.0591 7.16532 3 
27.2787 10.0592 4.29325 3 
25.8436 8.6246 5.72916 3 
27.2784 10.0591 7.16536 3 
25.8436 11.4936 5.72919 3 
1.43641 12.9297 4.2935 3 
1.43644 15.8009 4.29368 3 
1.43601 12.9296 7.16531 3 
1.43603 15.8007 7.16547 3 
2.87087 14.3651 5.72938 3 
0.00170989 14.3647 5.72934 3 
4.30593 12.9296 4.2935 3 
4.30592 15.8007 4.29355 3 
7.17637 12.9289 4.29342 3 
7.17569 15.7991 4.29268 3 
4.30539 12.9292 7.16511 3 
4.30532 15.8001 7.16508 3 
7.17576 12.9284 7.16501 3 
5.74039 14.3641 5.72889 3 
7.17434 15.7977 7.16399 3 
10.0478 12.9284 4.29363 3 
10.0473 15.798 4.29299 3 
10.0474 12.9281 7.16533 3 
8.61117 14.3629 5.72867 3 
10.0456 15.7962 7.16374 3 
11.4833 14.3626 5.7292 3 
12.9195 12.9281 4.29337 3 
15.7917 12.9279 4.29295 3 
12.918 15.7961 4.2915 3 
15.7911 15.7953 4.2903 3 
12.9197 12.9283 7.16569 3 
15.7919 12.9286 7.16538 3 
12.9192 15.7966 7.16508 3 
14.3554 14.3624 5.7287 3 
15.7918 15.7969 7.16387 3 
18.6643 12.9276 4.29235 3 
18.6657 15.794 4.28886 3 
18.6644 12.9283 7.1649 3 
17.2283 14.3622 5.72797 3 
18.6666 15.7958 7.16265 3 
20.1019 14.3613 5.72726 3 
21.5372 12.9272 4.292 3 
21.5411 15.7929 4.28802 3 
24.4089 12.9275 4.2924 3 
24.4117 15.7954 4.29051 3 
21.5368 12.9277 7.16491 3 
21.5403 15.7941 7.16352 3 
22.9745 14.361 5.72784 3 
24.4085 12.9278 7.16522 3 
24.4109 15.7959 7.16471 3 
27.2791 12.9288 4.2931 3 
27.2795 15.7992 4.29274 3 
27.2788 12.9288 7.16541 3 
25.8448 14.3627 5.72879 3 
27.279 15.7993 7.16532 3 
1.43637 18.6725 4.29416 3 
1.43601 18.6723 7.16577 3 
2.87107 17.2366 5.72971 3 
2.87148 20.1083 5.7304 3 
0.00151702 17.236 5.72944 3 
0.000998934 20.1077 5.72986 3 
4.30649 18.6725 4.29423 3 
7.17646 18.6713 4.29328 3 
4.30606 18.6719 7.16557 3 
5.74051 17.2354 5.72887 3 
7.17479 18.6695 7.16402 3 
5.74178 20.1078 5.72998 3 
10.0479 18.6697 4.29348 3 
8.60944 17.2321 5.72681 3 
10.0411 18.6627 7.15914 3 
11.4828 17.2315 5.72858 3 
8.61094 20.1056 5.72796 3 
11.485 20.1045 5.73066 3 
12.9135 18.6627 4.28689 3 
15.788 18.6586 4.28272 3 
12.9198 18.6646 7.16562 3 
14.3531 17.2285 5.72545 3 
15.7892 18.6605 7.15747 3 
14.3413 20.0872 5.71282 3 
18.6697 18.6543 4.27866 3 
17.2292 17.227 5.72331 3 
18.6765 18.6551 7.15272 3 
20.1084 17.2237 5.72077 3 
17.2289 20.076 5.70369 3 
20.1395 20.0643 5.68971 3 
21.5532 18.6525 4.27588 3 
24.4125 18.6665 4.28832 3 
21.5505 18.6544 7.15952 3 
22.9798 17.2264 5.72469 3 
22.9803 20.0981 5.7203 3 
24.4111 18.6666 7.16337 3 
27.279 18.671 4.29276 3 
25.8453 17.2332 5.728 3 
27.2783 18.671 7.16517 3 
25.8439 20.1056 5.72775 3 
1.43628 21.5438 4.29481 3 
1.43622 24.4148 4.29508 3 
1.43599 21.5437 7.16623 3 
2.8717 22.9794 5.73098 3 
1.43599 24.4149 7.16648 3 
0.000629895 22.9792 5.73043 3 
7.17838 24.4149 4.29518 3 
4.30707 21.544 4.29501 3 
4.30722 24.4149 4.2953 3 
7.17792 21.5438 4.29466 3 
4.30711 21.5438 7.16659 3 
7.17731 21.5431 7.16606 3 
5.74275 22.9795 5.731 3 
7.17852 24.4149 7.16729 3 
4.3075 24.4149 7.16704 3 
10.0505 21.5434 4.29604 3 
10.0517 24.415 4.29727 3 
10.0442 21.5391 7.16161 3 
8.61338 22.9792 5.73025 3 
11.4898 22.9797 5.73546 3 
10.0478 24.4149 7.16551 3 
15.7921 21.534 4.28669 3 
12.916 21.5391 4.28994 3 
15.8012 24.415 4.29361 3 
12.9199 24.415 4.29367 3 
12.9279 21.5417 7.1737 3 
15.7594 21.4982 7.11582 3 
14.3464 22.9698 5.719 3 
12.9375 24.415 7.18336 3 
15.7963 24.415 7.06328 5 
18.6787 21.5271 4.28134 3 
18.6635 24.415 4.297 3 
18.7611 21.4398 7.06816 3 
17.25 22.9483 5.72016 3 
20.1043 22.9896 5.72494 3 
18.6119 24.415 7.21731 5 
21.5428 21.5431 4.28639 3 
24.4092 21.5427 4.29132 3 
24.4085 24.4149 4.29223 3 
21.5416 24.4149 4.28761 3 
21.5478 21.5271 7.15055 3 
22.9729 22.9792 5.72729 3 
24.4056 24.4149 7.16475 3 
24.408 21.54 7.16257 3 
21.5322 24.4149 7.1658 3 
27.278 21.5434 4.2938 3 
27.2777 24.4149 4.29418 3 
27.2771 21.5429 7.16534 3 
25.8422 22.9789 5.72935 3 
27.2766 24.4149 7.16576 3 
1.43624 27.2859 4.29472 3 
1.43599 27.2862 7.16611 3 
2.87166 25.8503 5.73091 3 
0.000617794 25.8505 5.7304 3 
4.30697 27.2858 4.29493 3 
7.17776 27.2861 4.29462 3 
4.30704 27.286 7.1665 3 
5.74268 25.8504 5.73098 3 
7.17723 27.2867 7.166 3 
10.0504 27.2866 4.29605 3 
8.61331 25.8506 5.73024 3 
10.0441 27.2908 7.16156 3 
11.4897 25.8503 5.73544 3 
12.9159 27.2909 4.29 3 
15.7921 27.2959 4.28677 3 
12.9278 27.2883 7.17368 3 
14.3464 25.8602 5.71902 3 
15.7594 27.3317 7.11578 3 
18.6788 27.3029 4.28138 3 
17.25 25.8816 5.72017 3 
18.7612 27.3901 7.06812 3 
20.1043 25.8403 5.72493 3 
21.5428 27.2867 4.28639 3 
24.4092 27.2871 4.29128 3 
21.5479 27.3028 7.15049 3 
22.973 25.8506 5.72727 3 
24.408 27.2898 7.1625 3 
27.278 27.2864 4.29371 3 
25.8422 25.8509 5.72929 3 
27.2772 27.287 7.16523 3 
2.87057 2.88173 8.60122 3 
0.00105629 2.88194 8.60134 3 
2.87119 0.0100095 8.6017 3 
1.43566 1.44584 10.0373 3 
2.87018 2.88198 11.4732 3 
2.87082 0.0103361 11.4733 3 
0.000511886 0.0102522 8.6014 3 
0.000675593 2.88177 11.4734 3 
0.000175535 0.0100724 11.473 3 
5.73952 2.88359 8.60057 3 
4.30555 1.44663 10.0373 3 
7.17348 1.45002 10.0368 3 
5.73874 2.88436 11.4734 3 
5.74129 0.011012 8.6015 3 
5.74061 0.0120947 11.4741 3 
8.60699 2.88818 8.59868 3 
11.4794 2.88942 8.59879 3 
10.0367 1.45936 10.0337 3 
8.60517 2.88994 11.4734 3 
11.4772 2.89091 11.475 3 
8.60831 0.0151499 8.59932 3 
11.4668 0.0306772 8.58697 3 
8.60636 0.0182684 11.4755 3 
11.4576 0.0419447 11.4747 3 
14.3557 2.88694 8.60159 3 
14.3612 0.0191336 8.60715 3 
12.9114 1.45738 10.0351 3 
15.7916 1.45068 10.0375 3 
14.3527 2.88762 11.4763 3 
14.3456 0.0456006 11.4834 3 
17.2305 2.88765 8.59874 3 
20.106 2.89087 8.59995 3 
20.1256 0.041878 8.60026 3 
17.2376 0.0455771 8.5916 3 
20.1164 0.0306571 11.4879 3 
18.6718 1.45734 10.0399 3 
17.2276 2.88689 11.4734 3 
20.1038 2.88937 11.4761 3 
17.2219 0.019098 11.4678 3 
22.978 2.88986 8.60141 3 
22.975 0.0151361 11.4755 3 
21.5466 1.45931 10.0412 3 
22.9763 2.88815 11.4761 3 
24.4098 1.44995 10.038 3 
22.9769 0.0181793 8.59936 3 
25.8445 2.88428 8.60129 3 
25.8421 0.0110405 11.4732 3 
27.2778 1.44661 10.0373 3 
25.8437 2.88353 11.4741 3 
25.8427 0.0119997 8.60069 3 
2.87032 5.75326 8.60107 3 
1.43562 4.31743 10.0372 3 
1.43556 7.18863 10.0373 3 
2.86986 5.75338 11.4732 3 
0.0012886 5.75341 8.60134 3 
0.000859002 5.75324 11.4735 3 
5.73951 5.75467 8.60067 3 
4.30462 4.31843 10.037 3 
4.30479 7.1892 10.0371 3 
7.17314 4.32135 10.0365 3 
7.17508 7.19005 10.0371 3 
5.73886 5.7551 11.4732 3 
8.6102 5.75584 8.60062 3 
11.4826 5.7556 8.60124 3 
10.0442 4.32267 10.0368 3 
10.0468 7.19005 10.0375 3 
8.60934 5.75639 11.4735 3 
11.4819 5.75575 11.4742 3 
14.3556 5.75481 8.6016 3 
12.9178 4.32106 10.0377 3 
15.7916 4.31981 10.0375 3 
12.9192 7.18942 10.0378 3 
15.7916 7.18908 10.0376 3 
14.3548 5.75453 11.4742 3 
17.2284 5.75459 8.60085 3 
20.1014 5.75576 8.60085 3 
18.6654 4.32103 10.0373 3 
18.6639 7.18945 10.0373 3 
17.2276 5.75475 11.4735 3 
20.1006 5.75554 11.4737 3 
22.9738 5.75638 8.60134 3 
21.539 4.32261 10.0381 3 
21.5364 7.19005 10.0375 3 
22.973 5.75578 11.4742 3 
24.4101 4.3213 10.0382 3 
24.4081 7.19004 10.0377 3 
25.8443 5.75512 8.60149 3 
27.2786 4.3184 10.0376 3 
27.2783 7.18918 10.0376 3 
25.8437 5.75462 11.474 3 
2.87041 8.62398 8.60115 3 
2.87045 11.4942 8.6012 3 
1.43554 10.0591 10.0373 3 
2.86997 8.62398 11.4733 3 
2.86998 11.494 11.4733 3 
0.00111972 8.62406 8.60135 3 
0.00111381 11.4941 8.60143 3 
0.00067683 11.4941 11.4735 3 
0.000691257 8.62393 11.4735 3 
4.30512 10.059 10.0372 3 
5.74038 8.62431 8.60108 3 
5.74045 11.4938 8.60115 3 
7.17578 10.059 10.0373 3 
5.7399 8.6244 11.4733 3 
5.7399 11.4936 11.4734 3 
8.61159 8.62449 8.60137 3 
11.4836 8.62433 8.60178 3 
8.61163 11.4936 8.60142 3 
11.4836 11.4937 8.60178 3 
11.4832 8.62429 11.4739 3 
10.0475 10.059 10.0377 3 
8.61109 8.62455 11.4736 3 
8.6111 11.4934 11.4736 3 
11.4831 11.4936 11.4739 3 
14.3557 8.62412 8.60181 3 
14.3557 11.4939 8.60184 3 
12.9195 10.059 10.0379 3 
15.7916 10.059 10.0377 3 
14.3553 8.624 11.4738 3 
14.3553 11.4939 11.4738 3 
17.2278 8.6241 8.60146 3 
20.1 8.62437 8.60129 3 
17.2278 11.494 8.60148 3 
20.0999 11.4937 8.6013 3 
18.6636 10.059 10.0374 3 
17.2274 8.6241 11.4734 3 
20.0996 8.62433 11.4733 3 
17.2274 11.4939 11.4734 3 
20.0995 11.4937 11.4734 3 
22.972 8.62463 8.60137 3 
22.9719 11.4935 8.60144 3 
21.5356 10.0591 10.0374 3 
22.9716 8.62445 11.4735 3 
22.9715 11.4936 11.4736 3 
24.4073 10.0591 10.0376 3 
25.8432 8.62445 8.60146 3 
25.8432 11.4937 8.60153 3 
27.278 10.0591 10.0375 3 
25.8428 8.62428 11.4736 3 
25.8427 11.4938 11.4737 3 
2.87036 14.3648 8.60124 3 
0.00124924 14.3647 8.60151 3 
1.43556 12.9295 10.0374 3 
1.43558 15.8006 10.0374 3 
2.86987 14.3646 11.4734 3 
0.000796832 14.3648 11.4736 3 
5.73961 14.3634 8.60083 3 
4.30482 12.9289 10.0372 3 
4.30468 15.7996 10.0372 3 
7.1751 12.928 10.0372 3 
7.17321 15.7966 10.0367 3 
5.73888 14.3629 11.4733 3 
8.61028 14.3622 8.60073 3 
11.4827 14.3624 8.60131 3 
10.0468 12.9279 10.0376 3 
10.0442 15.7953 10.0369 3 
8.60936 14.3615 11.4737 3 
11.4818 14.3622 11.4743 3 
14.3555 14.3632 8.60166 3 
12.9192 12.9285 10.0379 3 
15.7915 12.9289 10.0377 3 
12.9177 15.7969 10.0378 3 
15.7915 15.7982 10.0376 3 
14.3547 14.3634 11.4744 3 
17.2283 14.3635 8.60092 3 
18.6638 12.9286 10.0373 3 
18.6653 15.797 10.0374 3 
17.2275 14.3632 11.4736 3 
20.1004 14.3625 11.4739 3 
20.1012 14.3623 8.60097 3 
22.9737 14.3617 8.60145 3 
21.5362 12.928 10.0376 3 
21.5388 15.7954 10.0383 3 
22.9729 14.3623 11.4743 3 
24.4099 15.7968 10.0384 3 
24.408 12.9281 10.0378 3 
25.8442 14.363 8.60166 3 
27.2783 12.9289 10.0377 3 
27.2785 15.7997 10.0378 3 
25.8436 14.3634 11.4741 3 
2.87063 17.2363 8.60141 3 
2.8712 20.1079 8.60185 3 
0.00100991 17.2361 8.60154 3 
1.4356 18.6722 10.0375 3 
2.87015 17.236 11.4734 3 
2.87079 20.1077 11.4734 3 
0.000576092 17.2363 11.4735 3 
0.000462098 20.1077 8.60156 3 
6.64954e-05 20.108 11.4731 3 
5.73964 17.2344 8.60072 3 
5.74137 20.1069 8.60165 3 
4.30557 18.6713 10.0375 3 
7.17355 18.6679 10.0369 3 
5.73876 17.2336 11.4736 3 
5.74063 20.1059 11.4742 3 
8.60709 17.2298 8.59879 3 
11.4795 17.2285 8.59887 3 
8.60841 20.1028 8.59941 3 
11.4669 20.0872 8.58705 3 
10.0367 18.6585 10.0338 3 
8.60522 17.228 11.4736 3 
11.4772 17.227 11.4751 3 
8.60639 20.0997 11.4757 3 
11.4575 20.076 11.4748 3 
14.3556 17.231 8.60166 3 
14.3612 20.0988 8.60722 3 
12.9114 18.6605 10.0352 3 
15.7915 18.6673 10.0376 3 
14.3526 17.2303 11.4764 3 
14.3455 20.0723 11.4835 3 
17.2303 17.2303 8.59883 3 
20.1058 17.2271 8.60008 3 
17.2375 20.0724 8.59164 3 
20.1254 20.076 8.60037 3 
18.6716 18.6606 10.04 3 
17.2274 17.2311 11.4736 3 
20.1036 17.2287 11.4763 3 
17.2218 20.0989 11.4679 3 
20.1162 20.0874 11.4881 3 
22.9778 17.2281 8.60153 3 
22.9767 20.0998 8.59945 3 
21.5463 18.6587 10.0414 3 
22.9761 17.2299 11.4763 3 
22.9748 20.1029 11.4756 3 
24.4096 18.668 10.0381 3 
25.8444 17.2337 8.60147 3 
25.8426 20.1059 8.60084 3 
27.2776 18.6714 10.0375 3 
25.8436 17.2345 11.4742 3 
25.8419 20.107 11.4733 3 
2.87167 22.9794 8.60234 3 
6.17716e-06 22.9791 8.60156 3 
1.43567 24.415 10.0374 3 
1.43565 21.5436 10.0375 3 
2.87131 22.9792 11.4734 3 
5.74326 22.9793 8.60319 3 
7.17956 24.4149 10.0407 3 
4.30761 24.415 10.0385 3 
4.30688 21.5432 10.038 3 
7.17698 21.5414 10.0387 3 
5.74269 22.9783 11.4746 3 
8.6134 22.9785 8.60352 3 
11.473 22.9697 8.59215 3 
10.0475 24.4149 10.0468 3 
10.0407 21.534 10.0378 3 
8.61283 22.9745 11.4783 3 
11.474 22.9483 11.4958 3 
14.3928 22.9926 8.63869 5 
15.0421 24.415 10.7865 5 
12.817 24.415 10.042 5 
14.2054 22.5773 11.6236 5 
15.7914 21.5808 10.0376 5 
12.8697 21.4982 10.0053 3 
17.3776 22.5773 8.45149 5 
20.109 22.9483 8.57928 3 
16.5408 24.415 9.28853 5 
18.766 24.415 10.033 5 
18.7132 21.4983 10.0698 3 
20.1101 22.9698 11.4829 3 
17.1903 22.9926 11.4363 5 
22.9703 22.9746 8.59677 3 
21.5356 24.415 10.0282 3 
21.5424 21.5341 10.0373 3 
24.4037 24.415 10.0342 3 
22.9699 22.9786 11.4714 3 
24.4063 21.5415 10.0363 3 
28.7117 22.9794 11.4726 3 
25.8406 22.9783 8.60038 3 
25.8401 22.9793 11.4717 3 
27.2764 21.5433 10.0369 3 
27.2758 24.415 10.0364 3 
2.87166 25.8505 8.60229 3 
1.4357 27.2863 10.0374 3 
2.8713 25.8508 11.4733 3 
3.89936e-05 25.8507 8.60152 3 
5.74322 25.8506 8.60315 3 
5.74268 25.8516 11.4746 3 
4.30688 27.2867 10.038 3 
7.17694 27.2885 10.0386 3 
8.61336 25.8514 8.60351 3 
11.473 25.8602 8.59207 3 
11.474 25.8817 11.4957 3 
8.6128 25.8553 11.4782 3 
10.0407 27.2959 10.0377 3 
14.3928 25.8374 8.63871 5 
14.2055 26.2525 11.6234 5 
15.7916 27.2492 10.0374 5 
12.8698 27.3317 10.0052 3 
17.3776 26.2526 8.45147 5 
20.1091 25.8817 8.57923 3 
17.1903 25.8374 11.4362 5 
18.7134 27.3317 10.0697 3 
20.1101 25.8602 11.4828 3 
22.9704 25.8553 8.59674 3 
21.5425 27.2959 10.0372 3 
22.9699 25.8514 11.4714 3 
24.4064 27.2885 10.0362 3 
28.7117 25.8506 11.4725 3 
25.8406 25.8516 8.60033 3 
27.2765 27.2867 10.0368 3 
25.8401 25.8507 11.4717 3 
1.43531 1.44582 12.9091 3 
0.000301075 2.88145 14.3452 3 
1.43493 1.44558 15.7808 3 
2.86969 2.88206 14.3454 3 
2.87025 0.0103403 14.3451 3 
4.30489 1.4471 12.9097 3 
7.17198 1.45141 12.9116 3 
5.73781 2.88488 14.3469 3 
5.73924 0.0124209 14.3472 3 
4.30414 1.447 15.7822 3 
7.1705 1.45153 15.7867 3 
10.0326 1.4636 12.9155 3 
11.4746 2.89428 14.3542 3 
10.0298 1.46547 15.7991 3 
8.60277 0.0198449 14.3547 3 
8.60325 2.89159 14.3503 3 
11.4435 0.0536923 14.3853 3 
12.9066 1.46287 12.9223 3 
15.7939 1.45737 12.9175 3 
14.3539 2.89088 14.3517 3 
12.9134 1.4636 15.7963 3 
15.7953 1.45938 15.7922 3 
14.3542 0.0419624 14.3713 3 
18.6635 1.45327 12.9093 3 
17.2303 2.88941 14.3495 3 
17.242 0.0307015 14.3621 3 
18.67 1.45522 15.788 3 
20.1006 2.88645 14.3463 3 
20.0984 0.0134021 14.3442 3 
21.5423 1.45518 12.9158 3 
24.4087 1.44847 12.9108 3 
22.9741 2.88584 14.348 3 
21.5357 1.44825 15.7813 3 
22.9725 0.0123329 14.3469 3 
24.4071 1.44671 15.7816 3 
28.7119 0.00978026 14.3445 3 
27.2774 1.44608 12.9093 3 
27.277 1.44551 15.7807 3 
25.843 2.88264 14.346 3 
25.8417 0.0101679 14.3449 3 
1.4352 4.31741 12.9093 3 
1.43513 7.18855 12.9094 3 
2.86944 5.75343 14.3455 3 
1.43482 4.31719 15.7813 3 
1.43478 7.18841 15.7814 3 
0.000418196 5.75298 14.3455 3 
7.17209 4.32217 12.9102 3 
4.30406 4.31875 12.9095 3 
4.30427 7.18933 12.9094 3 
7.17445 7.19031 12.9097 3 
5.73826 5.7554 14.3461 3 
4.30394 7.18934 15.7818 3 
4.30355 4.31881 15.7822 3 
7.17131 4.32262 15.7845 3 
7.17403 7.1905 15.7826 3 
10.0427 4.3239 12.9115 3 
10.0462 7.19032 12.9102 3 
11.4811 5.75667 14.3478 3 
10.0419 4.32511 15.787 3 
10.0458 7.19075 15.7831 3 
8.60852 5.75702 14.3472 3 
15.7913 4.32101 12.9112 3 
12.9165 4.32217 12.9124 3 
12.9187 7.18962 12.9103 3 
15.7913 7.18937 12.9098 3 
14.3548 5.75571 14.3471 3 
15.7922 4.32263 15.7846 3 
12.9174 4.32389 15.7861 3 
12.9188 7.19028 15.7827 3 
15.7915 7.18998 15.782 3 
18.6642 4.32126 12.9099 3 
18.6636 7.18964 12.9094 3 
20.1001 5.75535 14.3457 3 
18.6655 4.32178 15.7834 3 
18.6639 7.18988 15.7815 3 
17.2279 5.75553 14.3463 3 
24.4091 4.32032 12.9108 3 
21.5378 4.32175 12.9112 3 
21.5359 7.18987 12.9096 3 
24.4076 7.18965 12.9098 3 
21.5363 4.31994 15.7818 3 
21.5357 7.18954 15.7812 3 
24.4071 7.18914 15.7814 3 
24.4078 4.31894 15.7821 3 
22.9723 5.75509 14.3462 3 
27.2781 4.31797 12.9097 3 
27.2779 7.18891 12.9096 3 
27.2775 4.31736 15.7813 3 
27.2774 7.18854 15.7813 3 
25.843 5.75401 14.3459 3 
1.43513 10.059 12.9094 3 
2.86956 8.62395 14.3455 3 
1.43477 10.059 15.7814 3 
2.86955 11.494 14.3455 3 
0.000245725 11.4942 14.3455 3 
0.000285485 8.6238 14.3454 3 
4.30467 10.059 12.9094 3 
7.17532 10.059 12.9097 3 
4.30433 10.0589 15.7816 3 
7.17494 10.0589 15.7821 3 
5.73946 11.4935 14.3458 3 
5.73945 8.62447 14.3457 3 
10.047 10.0589 12.9099 3 
11.4828 8.62445 14.3462 3 
10.0467 10.0589 15.7822 3 
8.61063 11.4932 14.3461 3 
11.4827 11.4934 14.3462 3 
8.61063 8.62466 14.3461 3 
12.9192 10.0589 12.9099 3 
15.7913 10.0589 12.9095 3 
14.3552 8.62425 14.3458 3 
12.9191 10.0589 15.7819 3 
15.7914 10.0589 15.7814 3 
14.3551 11.4936 14.3458 3 
18.6633 10.059 12.9092 3 
17.2274 8.62429 14.3454 3 
17.2274 11.4937 14.3454 3 
18.6635 10.059 15.7811 3 
20.0994 11.4936 14.3452 3 
20.0995 8.62433 14.3451 3 
21.5354 10.059 12.9093 3 
24.407 10.059 12.9095 3 
22.9713 8.6243 14.3453 3 
21.5353 10.059 15.7809 3 
24.4067 10.059 15.7811 3 
22.9712 11.4937 14.3454 3 
27.2776 10.059 12.9095 3 
25.8424 8.62406 14.3455 3 
25.8423 11.4939 14.3455 3 
27.2772 10.059 15.7812 3 
1.43511 12.9295 12.9095 3 
1.43515 15.8007 12.9094 3 
2.86938 14.3646 14.3456 3 
1.43471 12.9296 15.7814 3 
1.43471 15.8008 15.7813 3 
0.000319994 14.365 14.3455 3 
4.30427 12.9287 12.9095 3 
4.30349 15.7991 15.7823 3 
4.30404 15.7993 12.9097 3 
7.17446 12.9276 12.9098 3 
7.17211 15.7958 12.9104 3 
5.73823 14.3625 14.3462 3 
4.30388 12.9286 15.7819 3 
7.17402 12.9274 15.7827 3 
7.17128 15.7953 15.7846 3 
10.0462 12.9276 12.9103 3 
10.0427 15.794 12.9117 3 
10.0458 12.9271 15.7832 3 
10.0419 15.7928 15.7872 3 
8.60849 14.3609 14.3473 3 
11.481 14.3611 14.348 3 
12.9187 12.9283 12.9104 3 
15.7912 12.9285 12.9099 3 
12.9164 15.7957 12.9126 3 
15.7912 15.7969 12.9114 3 
12.9187 12.9275 15.7828 3 
15.7915 12.9279 15.7821 3 
12.9173 15.794 15.7863 3 
15.7921 15.7953 15.7848 3 
14.3547 14.3622 14.3473 3 
18.6635 12.9283 12.9095 3 
18.6639 15.7967 12.9101 3 
18.6638 12.9281 15.7816 3 
18.6652 15.7962 15.7835 3 
20.0999 14.3626 14.3458 3 
17.2277 14.3624 14.3464 3 
21.5358 12.9282 12.9097 3 
21.5376 15.7963 12.9113 3 
24.4075 12.9284 12.9099 3 
24.4089 15.7977 12.911 3 
21.5355 12.9284 15.7813 3 
21.536 15.7981 15.7819 3 
24.407 12.9288 15.7814 3 
24.4076 15.7991 15.7822 3 
22.9721 14.3629 14.3462 3 
27.2778 12.9291 12.9097 3 
27.2779 15.8001 12.9098 3 
27.2773 12.9294 15.7813 3 
27.2773 15.8006 15.7813 3 
25.8429 14.364 14.346 3 
1.43522 18.6722 12.9092 3 
2.87019 20.1077 14.3451 3 
2.8696 17.236 14.3455 3 
1.43479 18.6725 15.7808 3 
0.000152829 17.2366 14.3452 3 
4.30486 18.6709 12.9098 3 
7.17198 18.6665 12.9117 3 
5.73923 20.1056 14.3473 3 
4.30405 18.671 15.7823 3 
7.17048 18.6664 15.7868 3 
5.73777 17.2331 14.3471 3 
10.0326 18.6543 12.9157 3 
8.60321 17.2263 14.3505 3 
11.4746 17.2236 14.3544 3 
10.0297 18.6525 15.7993 3 
11.4435 20.0643 14.3855 3 
8.60279 20.0981 14.3548 3 
12.9065 18.6551 12.9225 3 
15.7937 18.6606 12.9177 3 
14.3541 20.076 14.3714 3 
12.9133 18.6544 15.7965 3 
15.7951 18.6586 15.7924 3 
14.3538 17.227 14.3519 3 
18.6633 18.6647 12.9095 3 
17.2418 20.0873 14.3622 3 
18.6698 18.6628 15.7881 3 
17.23 17.2286 14.3497 3 
20.1004 17.2316 14.3464 3 
20.0983 20.1047 14.3443 3 
21.5421 18.6629 12.9159 3 
24.4085 18.6696 12.911 3 
21.5355 18.6698 15.7814 3 
24.4069 18.6714 15.7816 3 
22.9739 17.2322 14.3481 3 
22.9724 20.1058 14.347 3 
27.2772 18.672 12.9094 3 
25.8416 20.1079 14.3449 3 
27.2768 18.6726 15.7807 3 
28.7118 20.1083 14.3445 3 
25.8428 17.2354 14.346 3 
1.43535 24.415 12.9084 3 
1.43529 21.5437 12.9087 3 
1.43493 21.544 15.7802 3 
1.43501 24.415 15.7798 3 
2.87061 22.9793 14.3445 3 
4.30612 21.5429 12.9097 3 
4.30665 24.415 12.9092 3 
7.17519 21.54 12.9125 3 
7.17754 24.415 12.9103 3 
5.74097 22.979 14.3457 3 
4.3051 21.5435 15.7812 3 
4.30543 24.415 15.7808 3 
7.17386 21.5428 15.7838 3 
7.17461 24.415 15.7828 3 
10.0509 24.415 12.9092 3 
10.0352 21.5271 12.9246 3 
8.61013 22.9793 14.3478 3 
10.0402 21.5432 15.7887 3 
10.0415 24.415 15.7874 3 
11.4787 22.9896 14.3501 3 
12.9711 24.415 12.8577 5 
12.8219 21.4398 13.0069 3 
15.8236 21.4982 12.9593 3 
15.7868 24.415 13.0117 5 
12.9043 21.5271 15.7937 3 
15.791 21.5341 15.7883 3 
12.9196 24.415 15.778 3 
14.333 22.9483 14.3549 3 
15.782 24.415 15.7813 3 
18.6456 24.415 12.8916 3 
18.6552 21.5417 12.9013 3 
17.2367 22.9698 14.356 3 
18.6672 21.5392 15.785 3 
18.6634 24.4151 15.7812 3 
20.0935 22.9798 14.3394 3 
21.5354 24.415 12.9094 3 
24.406 21.5433 12.9089 3 
24.4048 24.4151 12.9076 3 
21.5391 21.5392 12.9134 3 
21.5329 21.5435 15.7788 3 
24.4055 21.5439 15.7802 3 
24.405 24.4151 15.7797 3 
21.5317 24.4151 15.7776 3 
22.97 22.9794 14.3446 3 
28.7116 22.9796 14.3439 3 
27.2759 24.4151 12.9078 3 
27.2762 21.5439 12.9083 3 
27.2763 21.5441 15.7799 3 
27.2761 24.4151 15.7796 3 
25.8406 22.9796 14.3439 3 
1.43535 27.2863 12.9087 3 
1.43502 27.2861 15.7801 3 
2.87064 25.8507 14.3445 3 
4.30612 27.2871 12.9096 3 
7.17518 27.29 12.9124 3 
4.30517 27.2866 15.7812 3 
7.1739 27.2872 15.7837 3 
5.74099 25.851 14.3456 3 
10.0352 27.3029 12.9244 3 
11.4787 25.8404 14.3501 3 
8.61013 25.8507 14.3477 3 
10.0403 27.2868 15.7886 3 
15.8237 27.3317 12.9592 3 
12.8219 27.3901 13.0069 3 
14.3331 25.8817 14.3548 3 
12.9044 27.3029 15.7936 3 
15.7911 27.296 15.7882 3 
20.0936 25.8503 14.3394 3 
18.6554 27.2883 12.9012 3 
18.6674 27.2909 15.7849 3 
17.2368 25.8602 14.3559 3 
24.4061 27.2868 12.9088 3 
21.5392 27.2909 12.9133 3 
22.97 25.8507 14.3446 3 
21.533 27.2866 15.7788 3 
24.4056 27.2862 15.7802 3 
27.2763 27.2862 12.9083 3 
27.2764 27.286 15.7799 3 
28.7117 25.8505 14.3439 3 
25.8407 25.8505 14.3439 3 
1.4347 1.44518 18.6522 3 
2.86933 2.88177 17.2174 3 
2.86981 0.00990185 17.2167 3 
2.86956 2.88103 20.0886 3 
2.86979 0.00953803 20.0881 3 