ITEM: TIMESTEP
75043
ITEM: NUMBER OF ATOMS
2001
ITEM: BOX BOUNDS pp pp pp
0.0000000000000000e+00 2.8712000000000000e+01
0.0000000000000000e+00 2.8712000000000000e+01
0.0000000000000000e+00 2.8712000000000000e+01
ITEM: ATOMS x y z c_cna 
1.43666 1.4451 1.42275 3 
2.8715 2.88092 2.85831 3 
0.00191725 2.88167 2.85741 3 
2.8717 0.00940682 2.85894 3 
0.00146416 0.00982443 2.85809 3 
4.30696 1.44495 1.4233 3 
7.17772 1.44535 1.42344 3 
5.74153 2.88144 2.85819 3 
5.74231 0.00948456 2.85902 3 
10.0476 1.44663 1.42224 3 
8.61214 2.88262 2.85802 3 
11.481 2.88582 2.85536 3 
11.4822 0.012194 2.8568 3 
8.61354 0.00999249 2.85935 3 
12.9181 1.44843 1.42069 3 
15.7909 1.44997 1.41953 3 
14.3528 2.8881 2.85314 3 
14.3535 0.0150545 2.85437 3 
18.6656 1.45134 1.41796 3 
17.2275 2.88983 2.85131 3 
20.1043 2.89147 2.84923 3 
17.2296 0.0181499 2.85237 3 
20.1087 0.0197404 2.84871 3 
22.9796 2.89074 2.8492 3 
24.41 1.44774 1.41867 3 
21.5406 1.45146 1.41635 3 
22.9765 0.0126 2.85227 3 
27.2789 1.44594 1.42128 3 
25.8457 2.88438 2.8548 3 
25.8442 0.0108077 2.85604 3 
1.43675 4.31674 1.42225 3 
1.43674 7.18812 1.42212 3 
2.87138 5.75254 2.85792 3 
0.00206586 5.75316 2.85732 3 
7.17694 4.31733 1.42278 3 
4.3066 4.3166 1.42276 3 
4.30645 7.18808 1.42257 3 
7.17684 7.18856 1.42277 3 
5.74119 5.75315 2.85788 3 
10.0469 4.31897 1.42162 3 
10.0476 7.18929 1.42244 3 
8.61198 5.75398 2.85797 3 
11.4828 5.75515 2.85722 3 
12.9181 4.32039 1.4204 3 
15.7906 4.32133 1.41935 3 
12.9191 7.18978 1.42195 3 
15.7912 7.1901 1.42139 3 
14.3547 5.75582 2.85647 3 
18.6642 4.32213 1.41821 3 
18.6637 7.19033 1.42071 3 
17.2276 5.75635 2.85558 3 
20.1011 5.75697 2.85464 3 
21.5384 4.32257 1.41731 3 
21.5365 7.19049 1.42015 3 
22.9745 5.75708 2.85441 3 
24.4087 7.19018 1.42019 3 
24.4109 4.32138 1.41794 3 
27.2796 4.31821 1.42072 3 
27.2792 7.18906 1.42118 3 
25.845 5.75525 2.8559 3 
1.4367 10.059 1.42212 3 
2.87141 8.62363 2.85788 3 
2.87136 11.4943 2.8579 3 
0.00187906 11.494 2.85746 3 
0.00188738 8.62384 2.85746 3 
4.30647 10.059 1.4226 3 
7.1769 10.0591 1.4229 3 
5.74141 8.62386 2.85814 3 
5.74137 11.4943 2.85816 3 
10.0479 10.0592 1.42282 3 
8.61227 8.62419 2.85836 3 
11.4836 8.62443 2.85824 3 
8.61226 11.4941 2.85837 3 
11.4836 11.4938 2.85824 3 
12.9195 10.0591 1.42254 3 
15.7914 10.0591 1.42213 3 
14.3554 8.62453 2.85792 3 
14.3555 11.4937 2.85792 3 
18.6636 10.059 1.4216 3 
17.2276 8.62459 2.85743 3 
20.1001 8.62468 2.85687 3 
17.2277 11.4935 2.85743 3 
20.1002 11.4932 2.85686 3 
21.536 10.0589 1.42113 3 
22.9724 8.62473 2.85657 3 
22.9725 11.4931 2.85657 3 
24.408 10.0589 1.42101 3 
27.2788 10.0589 1.42148 3 
25.8438 8.62439 2.8569 3 
25.8438 11.4934 2.85688 3 
1.4367 12.9298 1.4221 3 
1.43668 15.8012 1.42225 3 
2.87129 14.3654 2.85794 3 
0.00206313 14.3647 2.85732 3 
4.30648 15.8014 1.42279 3 
4.30637 12.93 1.42258 3 
7.17679 12.9296 1.42279 3 
7.17683 15.8007 1.42279 3 
5.74107 14.3649 2.85793 3 
10.0476 12.929 1.42244 3 
10.0469 15.7991 1.42167 3 
8.61193 14.3642 2.858 3 
11.4828 14.363 2.85726 3 
12.9192 12.9285 1.42195 3 
15.7913 12.928 1.42136 3 
12.9182 15.7977 1.42041 3 
15.7908 15.7967 1.41934 3 
14.3549 14.3623 2.85646 3 
18.6639 12.9276 1.42071 3 
18.6645 15.7958 1.41823 3 
17.2278 14.3616 2.85557 3 
20.1014 14.3609 2.85465 3 
21.5367 12.9274 1.42014 3 
21.5386 15.7953 1.41732 3 
22.9746 14.3608 2.85442 3 
24.411 15.7965 1.41795 3 
24.4088 12.9276 1.42019 3 
27.2792 12.9288 1.42116 3 
27.2796 15.7997 1.42073 3 
25.8451 14.3626 2.85592 3 
1.43658 18.6729 1.42276 3 
2.87141 17.2371 2.85835 3 
2.8716 20.1086 2.85896 3 
0.00143692 20.1082 2.85813 3 
0.00191022 17.2363 2.85745 3 
4.30685 18.673 1.42332 3 
7.1776 18.6726 1.42348 3 
5.7414 17.2366 2.85826 3 
5.74219 20.1085 2.85909 3 
10.0475 18.6713 1.42228 3 
8.61206 17.2354 2.85808 3 
11.481 17.2322 2.85539 3 
8.61348 20.1079 2.85941 3 
11.4822 20.1057 2.85682 3 
12.9183 18.6695 1.42074 3 
15.7911 18.668 1.41956 3 
14.353 17.2299 2.85317 3 
14.3537 20.1028 2.85439 3 
18.6658 18.6666 1.41797 3 
17.2277 17.2281 2.85132 3 
20.1045 17.2264 2.84926 3 
17.2298 20.0998 2.85239 3 
20.1089 20.0982 2.84873 3 
21.5408 18.6665 1.41639 3 
24.4102 18.6702 1.41873 3 
22.9798 17.2272 2.84924 3 
22.9766 20.1054 2.85231 3 
27.279 18.672 1.42129 3 
25.8458 17.2336 2.85484 3 
25.8443 20.1072 2.85608 3 
1.43652 21.5441 1.4232 3 
2.87173 22.9796 2.85938 3 
1.43654 24.415 1.42335 3 
0.00122733 22.9796 2.85861 3 
4.30736 24.415 1.42394 3 
4.30719 21.5442 1.42378 3 
7.17845 21.5441 1.42423 3 
5.74272 22.9796 2.85962 3 
7.1788 24.4149 1.42448 3 
10.049 21.5438 1.42365 3 
8.61464 22.9795 2.86049 3 
11.4846 22.9792 2.85922 3 
10.0496 24.4149 1.42414 3 
12.9204 21.5431 1.42318 3 
15.7929 21.5414 1.42289 3 
14.3578 22.9785 2.85935 3 
15.7949 24.4149 1.42544 3 
12.9216 24.4149 1.42436 3 
18.6666 21.54 1.42106 3 
17.2324 22.9746 2.85877 3 
20.1019 22.9793 2.85602 3 
18.6643 24.415 1.42337 3 
21.5378 21.5428 1.41968 3 
24.4091 21.5433 1.41976 3 
22.975 22.9791 2.85382 3 
24.4087 24.415 1.42005 3 
21.5368 24.415 1.42035 3 
27.2785 21.5438 1.42187 3 
25.8436 22.9793 2.85686 3 
27.2784 24.4151 1.42207 3 
1.4366 27.2859 1.42319 3 
2.87179 25.8504 2.85937 3 
0.00124348 25.8506 2.8586 3 
4.30728 27.2857 1.42376 3 
7.17852 27.2858 1.4242 3 
5.74277 25.8503 2.85961 3 
10.049 27.2861 1.42363 3 
8.61467 25.8503 2.86047 3 
11.4846 25.8506 2.8592 3 
12.9203 27.2867 1.42316 3 
15.7928 27.2885 1.42286 3 
14.3578 25.8513 2.85934 3 
18.6664 27.2899 1.42105 3 
17.2324 25.8553 2.85877 3 
20.1018 25.8506 2.85602 3 
21.5376 27.2872 1.41965 3 
22.975 25.8509 2.8538 3 
24.409 27.2867 1.41972 3 
27.2785 27.2862 1.42184 3 
25.8435 25.8508 2.85685 3 
1.4364 1.44546 4.29401 3 
1.43594 1.4457 7.16565 3 
2.87103 2.88134 5.72962 3 
2.8714 0.00968412 5.73035 3 
0.00152536 2.88192 5.72926 3 
0.000963787 0.0102628 5.72966 3 
4.30647 1.4454 4.29419 3 
7.17634 1.44659 4.29336 3 
4.30596 1.44599 7.16556 3 
7.17467 1.44839 7.16408 3 
5.74042 2.88254 5.72891 3 
5.74168 0.010051 5.73004 3 
10.0477 1.44812 4.29365 3 
10.041 1.45508 7.15927 3 
8.60931 2.88577 5.72693 3 
11.4827 2.88638 5.72874 3 
11.4848 0.0132596 5.73085 3 
8.6108 0.012189 5.72809 3 
12.9132 1.45508 4.28706 3 
15.7878 1.45923 4.2828 3 
12.9197 1.45316 7.16575 3 
15.7892 1.45722 7.15749 3 
14.3529 2.88928 5.72555 3 
14.3411 0.0305407 5.71291 3 
18.6696 1.46347 4.2786 3 
18.6765 1.46272 7.15263 3 
17.2291 2.89074 5.7233 3 
20.1084 2.89413 5.72063 3 
20.1394 0.0535147 5.68956 3 
17.2288 0.0418023 5.70367 3 
24.4125 1.45143 4.28808 3 
21.5532 1.46537 4.27566 3 
21.5505 1.46348 7.15931 3 
22.9798 2.89147 5.72446 3 
24.4111 1.4513 7.16311 3 
22.9802 0.0197537 5.72003 3 
27.279 1.44691 4.29251 3 
27.2783 1.447 7.16497 3 
25.8453 2.88477 5.72776 3 
25.8439 0.0123581 5.72747 3 
1.43648 4.31709 4.29354 3 
1.43649 7.18833 4.29345 3 
1.436 4.31725 7.16537 3 
1.43604 7.18842 7.16529 3 
2.87087 5.75288 5.72932 3 
0.00174414 5.7533 5.72922 3 
7.17562 4.31889 4.2928 3 
4.30594 4.31728 4.29355 3 
4.30596 7.18852 4.29353 3 
7.17632 7.18919 4.29355 3 
4.30525 4.31788 7.16504 3 
7.17427 4.32025 7.16403 3 
4.30536 7.18886 7.16511 3 
5.74033 5.75396 5.72894 3 
7.1757 7.18966 7.16506 3 
10.0471 4.31991 4.29317 3 
10.0477 7.18963 4.29382 3 
10.0455 4.3217 7.16383 3 
8.61108 5.75508 5.72878 3 
10.0473 7.18991 7.16539 3 
11.4832 5.75537 5.72934 3 
12.9178 4.32173 4.29168 3 
15.7908 4.32256 4.29041 3 
12.9194 7.18996 4.29359 3 
15.7916 7.19003 4.29309 3 
12.9191 4.32124 7.16519 3 
15.7918 4.32093 7.16388 3 
12.9196 7.18968 7.16572 3 
14.3553 5.75551 5.7288 3 
15.7919 7.18937 7.16532 3 
18.6655 4.32379 4.28885 3 
18.6642 7.19029 4.29241 3 
18.6666 4.32205 7.16254 3 
17.2282 5.75566 5.72798 3 
18.6644 7.18957 7.16479 3 
20.1019 5.7566 5.72716 3 
21.541 4.32499 4.28792 3 
21.5371 7.1907 4.29193 3 
24.409 7.19043 4.29229 3 
24.4117 4.32251 4.29032 3 
21.5403 4.32376 7.16332 3 
24.411 4.32202 7.16447 3 
21.5369 7.19021 7.16474 3 
22.9745 5.7569 5.72767 3 
24.4086 7.19019 7.16504 3 
27.2796 4.31871 4.29254 3 
27.2792 7.18927 4.29298 3 
27.2791 4.31861 7.16514 3 
25.8448 5.7553 5.72858 3 
27.2788 7.18919 7.16529 3 
1.43646 10.0589 4.29347 3 
1.436 10.0589 7.1653 3 
2.87096 8.62375 5.72936 3 
2.8709 11.4942 5.72937 3 
0.00156523 11.494 5.72929 3 
0.00157666 8.62387 5.7293 3 
4.30611 10.059 4.29367 3 
7.17664 10.0591 4.29392 3 
4.3056 10.059 7.16528 3 
5.74093 8.6241 5.72942 3 
7.17621 10.0591 7.16543 3 
5.74087 11.494 5.72943 3 
10.048 10.0592 4.29416 3 
8.61201 8.62439 5.72966 3 
10.0478 10.0591 7.16575 3 
11.4838 8.62443 5.72996 3 
8.61198 11.4939 5.72969 3 
11.4838 11.4938 5.72995 3 
12.9197 10.0591 4.29412 3 
15.7917 10.0591 4.2938 3 
12.9198 10.0591 7.16593 3 
14.3558 8.62435 5.72981 3 
15.7919 10.0591 7.16566 3 
14.3558 11.4938 5.72981 3 
18.6639 10.059 4.29329 3 
20.1003 8.62446 5.72891 3 
17.2279 8.62431 5.72935 3 
18.664 10.059 7.16526 3 
17.228 11.4938 5.72937 3 
20.1003 11.4935 5.72892 3 
24.4081 10.0589 4.29291 3 
21.5362 10.0589 4.29289 3 
21.5361 10.0589 7.16511 3 
22.9724 8.62461 5.72884 3 
22.9724 11.4932 5.72886 3 
24.4078 10.0589 7.16521 3 
27.2788 10.0589 4.29319 3 
25.8436 8.62437 5.72908 3 
27.2784 10.0589 7.16534 3 
25.8436 11.4934 5.72908 3 
1.43644 12.9296 4.29347 3 
1.43642 15.8009 4.29359 3 
1.43597 12.9294 7.16533 3 
1.43592 15.8007 7.16543 3 
2.87077 14.3651 5.72939 3 
0.00171918 14.3646 5.72925 3 
4.30587 12.9295 4.29357 3 
4.3058 15.8007 4.29362 3 
7.17625 12.929 4.2936 3 
7.17551 15.7992 4.29288 3 
4.30526 12.9292 7.16517 3 
4.3051 15.8001 7.16513 3 
7.17561 12.9285 7.16512 3 
5.7402 14.3641 5.72902 3 
7.17413 15.7978 7.16414 3 
10.0477 12.9286 4.29385 3 
10.0471 15.7982 4.29323 3 
10.0473 12.9283 7.16544 3 
8.61101 14.3631 5.72886 3 
10.0455 15.7964 7.16389 3 
11.4833 14.3628 5.72941 3 
12.9194 12.9283 4.29359 3 
15.7917 12.9281 4.29309 3 
12.9179 15.7964 4.2917 3 
15.791 15.7955 4.2904 3 
12.9197 12.9285 7.16575 3 
15.792 12.9287 7.16535 3 
12.9192 15.7969 7.1652 3 
14.3554 14.3626 5.72882 3 
15.792 15.7971 7.16387 3 
18.6644 12.9277 4.29241 3 
18.6658 15.7941 4.28886 3 
18.6645 12.9284 7.16479 3 
17.2284 14.3624 5.72798 3 
18.6668 15.7959 7.16253 3 
20.1021 14.3613 5.72718 3 
24.409 12.9274 4.2923 3 
24.4118 15.7954 4.29034 3 
21.5372 12.9272 4.29194 3 
21.5412 15.7929 4.28794 3 
21.537 12.9277 7.16475 3 
21.5405 15.7942 7.16334 3 
22.9746 14.361 5.7277 3 
24.4087 12.9276 7.16507 3 
24.4111 15.7959 7.1645 3 
27.2792 12.9286 4.29299 3 
27.2796 15.7992 4.29258 3 
27.2788 12.9286 7.16531 3 
25.8449 14.3626 5.72861 3 
27.2791 15.7993 7.16517 3 
1.43633 18.6725 4.29406 3 
1.43588 18.6723 7.16572 3 
2.87092 17.2367 5.7297 3 
2.87131 20.1084 5.7304 3 
0.00151064 17.236 5.72933 3 
0.000964964 20.1078 5.72971 3 
4.30633 18.6726 4.29427 3 
7.17624 18.6714 4.29346 3 
4.30583 18.6721 7.16565 3 
5.74028 17.2355 5.72902 3 
7.17455 18.6697 7.16419 3 
5.74155 20.108 5.73013 3 
10.0477 18.6699 4.29372 3 
8.60922 17.2323 5.72703 3 
10.0409 18.6629 7.15933 3 
11.4827 17.2317 5.72878 3 
8.61075 20.1058 5.72816 3 
11.4849 20.1047 5.73089 3 
12.9134 18.6629 4.2871 3 
15.788 18.6587 4.28281 3 
12.9198 18.6648 7.16578 3 
14.3531 17.2287 5.72556 3 
15.7894 18.6607 7.15749 3 
14.3413 20.0874 5.71294 3 
18.6698 18.6545 4.2786 3 
17.2293 17.2272 5.72328 3 
18.6767 18.6552 7.15261 3 
20.1086 17.2238 5.72064 3 
17.229 20.0761 5.70366 3 
20.1396 20.0645 5.68956 3 
21.5534 18.6526 4.27569 3 
24.4127 18.6666 4.28813 3 
21.5507 18.6545 7.1593 3 
22.98 17.2265 5.72448 3 
22.9804 20.0983 5.72005 3 
24.4112 18.6667 7.16315 3 
27.2791 18.6711 4.29255 3 
25.8454 17.2332 5.7278 3 
27.2783 18.671 7.16502 3 
25.844 20.1057 5.72753 3 
1.43625 21.544 4.29472 3 
1.43624 24.4151 4.29499 3 
1.43586 21.5438 7.16621 3 
2.87159 22.9796 5.73099 3 
1.43585 24.4151 7.16648 3 
0.0005829 22.9794 5.73031 3 
4.30691 21.5441 4.29507 3 
4.30716 24.415 4.29536 3 
7.17769 21.5439 4.29481 3 
7.17826 24.4149 4.29534 3 
4.3069 21.5439 7.1667 3 
7.1771 21.5433 7.16626 3 
5.74256 22.9796 5.73115 3 
7.17837 24.415 7.1675 3 
4.30736 24.415 7.16718 3 
10.0503 21.5434 4.29627 3 
10.0515 24.4149 4.29747 3 
10.0441 21.5392 7.16183 3 
8.61322 22.9793 5.73048 3 
11.4897 22.9797 5.73566 3 
10.0478 24.4149 7.16574 3 
15.792 21.5341 4.28675 3 
12.9159 21.5392 4.29012 3 
15.801 24.4149 4.29362 3 
12.9198 24.4149 4.29381 3 
12.9279 21.5418 7.17388 3 
15.7595 21.4983 7.11587 3 
14.3464 22.9698 5.71912 3 
12.9375 24.4149 7.18353 3 
15.7963 24.415 7.06333 5 
18.6788 21.5272 4.28125 3 
18.6634 24.415 4.29685 3 
18.7613 21.4399 7.06802 3 
17.25 22.9483 5.72013 3 
20.1044 22.9897 5.72476 3 
18.612 24.415 7.21722 5 
21.5429 21.5433 4.28615 3 
24.4093 21.5429 4.29106 3 
24.4085 24.4151 4.29196 3 
21.5416 24.415 4.28735 3 
21.548 21.5272 7.15032 3 
22.973 22.9794 5.72704 3 
24.4057 24.4151 7.16454 3 
24.4081 21.5402 7.16234 3 
21.5323 24.415 7.16559 3 
27.2781 21.5436 4.29354 3 
27.2778 24.4151 4.29398 3 
27.2771 21.543 7.16518 3 
25.8422 22.9791 5.72908 3 
27.2765 24.4151 7.16562 3 
1.43629 27.286 4.29469 3 
1.43589 27.2863 7.16618 3 
2.87162 25.8505 5.73098 3 
0.000580612 25.8507 5.7303 3 
4.30702 27.2859 4.29502 3 
7.17777 27.2861 4.29476 3 
4.30699 27.2861 7.16663 3 
5.74261 25.8504 5.73112 3 
7.17718 27.2867 7.16621 3 
10.0503 27.2864 4.29622 3 
8.61324 25.8506 5.73046 3 
10.0441 27.2907 7.16179 3 
11.4896 25.8502 5.73564 3 
12.9158 27.2907 4.2901 3 
15.7919 27.2958 4.28676 3 
12.9278 27.2882 7.17387 3 
14.3463 25.8601 5.71912 3 
15.7594 27.3316 7.11588 3 
18.6786 27.3028 4.28124 3 
17.2499 25.8816 5.72013 3 
18.7611 27.39 7.06806 3 
20.1043 25.8403 5.72477 3 
21.5427 27.2867 4.28615 3 
24.4092 27.2872 4.29104 3 
21.5478 27.3028 7.15033 3 
22.9729 25.8507 5.72703 3 
24.4079 27.2899 7.16232 3 
27.278 27.2866 4.29352 3 
25.8422 25.8511 5.72907 3 
27.277 27.2871 7.16514 3 
2.87056 2.88166 8.60136 3 
0.000976019 2.88187 8.60142 3 
1.43552 1.44582 10.0374 3 
2.8701 2.88193 11.4734 3 
0.000530461 2.88171 11.4735 3 
2.87068 0.0103472 11.4735 3 
2.87108 0.0100341 8.60183 3 
0.000351716 0.0103062 8.60144 3 
5.73956 2.88349 8.60074 3 
5.74125 0.0109929 8.6017 3 
4.30548 1.44659 10.0375 3 
7.17348 1.44996 10.037 3 
5.73873 2.8843 11.4735 3 
5.74055 0.0120754 11.4742 3 
8.60705 2.88808 8.59884 3 
11.4795 2.88929 8.59894 3 
8.60831 0.0150814 8.59953 3 
11.4668 0.0305605 8.5872 3 
8.60637 0.0181984 11.4757 3 
10.0367 1.45928 10.0338 3 
8.60525 2.8899 11.4736 3 
11.4773 2.89085 11.4751 3 
11.4576 0.0418554 11.4749 3 
14.3556 2.8868 8.60167 3 
14.3456 0.0455466 11.4835 3 
12.9114 1.45726 10.0352 3 
15.7916 1.45057 10.0376 3 
14.3528 2.88757 11.4763 3 
14.3613 0.0189952 8.6073 3 
17.2304 2.88749 8.59875 3 
20.1059 2.89075 8.5999 3 
20.1255 0.0418416 8.6002 3 
17.2376 0.045514 8.59164 3 
17.222 0.0190433 11.4679 3 
20.1164 0.0306319 11.488 3 
18.6718 1.45725 10.0399 3 
17.2276 2.88683 11.4735 3 
20.1038 2.88931 11.4761 3 
22.9779 2.8898 8.60132 3 
22.9749 0.0151544 11.4755 3 
21.5465 1.45927 10.0412 3 
22.9762 2.88811 11.4762 3 
24.4096 1.44994 10.038 3 
22.9768 0.0181902 8.59925 3 
28.712 0.0100875 11.4731 3 
25.8444 2.88422 8.60129 3 
25.8419 0.0110493 11.4733 3 
27.2776 1.4466 10.0374 3 
25.8436 2.88349 11.4742 3 
25.8425 0.0120593 8.60065 3 
2.87035 5.75311 8.6012 3 
1.43555 4.31732 10.0374 3 
1.43558 7.18847 10.0374 3 
2.86985 5.75331 11.4733 3 
0.00126462 5.75324 8.60142 3 
0.000793007 5.75314 11.4736 3 
5.73958 5.75456 8.6008 3 
4.30465 4.31834 10.0371 3 
4.3048 7.18911 10.0371 3 
7.1732 4.32126 10.0367 3 
7.17511 7.19001 10.0371 3 
5.73889 5.75505 11.4733 3 
8.61025 5.75577 8.60072 3 
11.4827 5.75554 8.60131 3 
10.0443 4.32259 10.0369 3 
10.0469 7.19007 10.0375 3 
8.60941 5.7564 11.4735 3 
11.4819 5.75577 11.4741 3 
14.3556 5.75471 8.6016 3 
12.9178 4.32099 10.0378 3 
15.7916 4.3197 10.0375 3 
12.9193 7.18944 10.0378 3 
15.7917 7.18906 10.0374 3 
14.3549 5.75455 11.4742 3 
17.2284 5.75444 8.60079 3 
20.1013 5.7556 8.60076 3 
18.6654 4.32092 10.0372 3 
18.664 7.18934 10.0371 3 
17.2277 5.75472 11.4734 3 
20.1006 5.75546 11.4737 3 
21.5389 4.32252 10.0381 3 
22.9738 5.75623 8.60127 3 
21.5364 7.1899 10.0374 3 
22.973 5.75569 11.4742 3 
24.41 4.3212 10.0382 3 
24.4081 7.18988 10.0377 3 
25.8442 5.75496 8.60149 3 
27.2785 4.31831 10.0377 3 
27.2783 7.18903 10.0376 3 
25.8436 5.75452 11.474 3 
2.87044 8.62382 8.60122 3 
2.87038 11.4941 8.60125 3 
0.00111345 11.4939 8.60141 3 
1.43554 10.0589 10.0374 3 
2.86996 8.62389 11.4733 3 
2.8699 11.494 11.4734 3 
0.000646482 11.494 11.4735 3 
0.000666698 8.62378 11.4735 3 
0.00113913 8.62383 8.60141 3 
5.74041 8.62426 8.60117 3 
5.74034 11.4938 8.60122 3 
4.3051 10.059 10.0372 3 
7.17578 10.0591 10.0373 3 
5.73992 8.62442 11.4733 3 
5.73985 11.4937 11.4733 3 
8.6116 8.6245 8.60139 3 
11.4836 8.62438 8.60174 3 
8.61157 11.4937 8.60144 3 
11.4836 11.4939 8.60174 3 
11.4832 8.6244 11.4737 3 
10.0475 10.0591 10.0376 3 
8.61116 8.62463 11.4735 3 
8.61112 11.4936 11.4735 3 
11.4832 11.4938 11.4737 3 
14.3558 8.62414 8.60171 3 
14.3558 11.494 8.60171 3 
12.9196 10.0591 10.0377 3 
15.7917 10.0591 10.0374 3 
14.3554 8.62412 11.4735 3 
14.3555 11.4941 11.4735 3 
17.2279 8.62403 8.60131 3 
20.1 8.62424 8.60113 3 
17.2279 11.494 8.60132 3 
20.1001 11.4937 8.60112 3 
18.6637 10.059 10.0372 3 
17.2276 8.62411 11.4732 3 
20.0997 8.62424 11.4732 3 
17.2276 11.4939 11.4732 3 
20.0997 11.4937 11.4732 3 
22.972 8.62443 8.60126 3 
22.9721 11.4934 8.60128 3 
21.5357 10.0589 10.0372 3 
22.9716 8.62431 11.4735 3 
22.9716 11.4934 11.4735 3 
24.4074 10.0589 10.0375 3 
25.8432 8.62425 8.60144 3 
25.8432 11.4935 8.60144 3 
27.278 10.0589 10.0375 3 
25.8427 8.62411 11.4737 3 
25.8427 11.4936 11.4737 3 
2.87023 14.3648 8.60126 3 
0.00121435 14.3646 8.60146 3 
1.43549 12.9294 10.0374 3 
1.43545 15.8006 10.0374 3 
2.86971 14.3646 11.4734 3 
0.000726528 14.3647 11.4736 3 
5.73942 14.3635 8.6009 3 
4.30467 12.9289 10.0372 3 
4.30447 15.7997 10.0372 3 
7.17501 12.9281 10.0372 3 
7.17304 15.7968 10.0367 3 
5.73873 14.363 11.4733 3 
8.61017 14.3624 8.6008 3 
11.4827 14.3626 8.60132 3 
10.0468 12.9282 10.0375 3 
10.0442 15.7956 10.0369 3 
8.60932 14.3618 11.4736 3 
11.4819 14.3624 11.4741 3 
14.3557 14.3634 8.6016 3 
12.9193 12.9288 10.0378 3 
15.7917 12.929 10.0375 3 
12.9179 15.7971 10.0378 3 
15.7918 15.7983 10.0375 3 
14.355 14.3636 11.4741 3 
17.2285 14.3636 8.60079 3 
20.1015 14.3623 8.60075 3 
18.6641 12.9286 10.0371 3 
18.6656 15.797 10.0372 3 
17.2278 14.3633 11.4734 3 
20.1007 14.3624 11.4737 3 
22.9739 14.3616 8.60129 3 
21.5365 12.9279 10.0374 3 
21.5391 15.7954 10.0381 3 
22.9731 14.3621 11.4742 3 
24.4101 15.7967 10.0382 3 
24.4081 12.9279 10.0377 3 
25.8443 14.3629 8.60151 3 
27.2783 12.9287 10.0376 3 
27.2785 15.7996 10.0377 3 
25.8436 14.3633 11.474 3 
2.87043 17.2363 8.60143 3 
2.87099 20.108 8.60189 3 
0.000359668 20.1078 8.60148 3 
1.43544 18.6722 10.0375 3 
2.86996 17.2361 11.4734 3 
2.87056 20.1078 11.4735 3 
0.000951379 17.2361 8.60147 3 
0.000500124 17.2362 11.4735 3 
5.7394 17.2346 8.60085 3 
5.74114 20.1071 8.6018 3 
4.30534 18.6714 10.0376 3 
7.17337 18.6681 10.0371 3 
5.73856 17.2338 11.4736 3 
5.74041 20.106 11.4743 3 
8.60694 17.23 8.59891 3 
11.4795 17.2288 8.59898 3 
8.60825 20.1029 8.59959 3 
11.4669 20.0874 8.5872 3 
10.0367 18.6588 10.0339 3 
8.60514 17.2282 11.4736 3 
11.4773 17.2273 11.4751 3 
8.60629 20.0999 11.4757 3 
11.4577 20.0762 11.4748 3 
14.3558 17.2312 8.60166 3 
14.3614 20.099 8.60727 3 
12.9115 18.6608 10.0352 3 
15.7918 18.6674 10.0375 3 
14.3529 17.2305 11.4763 3 
14.3458 20.0725 11.4835 3 
17.2306 17.2305 8.59872 3 
20.1062 17.2272 8.59989 3 
17.2378 20.0724 8.59159 3 
20.1258 20.0762 8.60015 3 
18.672 18.6607 10.0398 3 
17.2278 17.2312 11.4734 3 
20.104 17.2286 11.4761 3 
17.2222 20.099 11.4678 3 
20.1166 20.0874 11.4879 3 
22.9781 17.2281 8.60133 3 
22.9769 20.0999 8.59926 3 
21.5467 18.6587 10.0412 3 
22.9763 17.2298 11.4761 3 
22.975 20.1029 11.4755 3 
24.4098 18.668 10.038 3 
28.7119 20.108 11.4731 3 
25.8445 17.2337 8.6013 3 
25.8426 20.106 8.60068 3 
27.2776 18.6714 10.0374 3 
25.8437 17.2344 11.4742 3 
25.842 20.107 11.4733 3 
2.87147 22.9795 8.60243 3 
1.43548 24.4151 10.0375 3 
1.43547 21.5437 10.0375 3 
2.87106 22.9793 11.4734 3 
5.74306 22.9794 8.60338 3 
7.17943 24.415 10.0409 3 
4.3074 24.4151 10.0387 3 
4.30664 21.5433 10.0382 3 
7.17679 21.5416 10.0389 3 
5.74246 22.9784 11.4748 3 
8.6133 22.9786 8.60377 3 
11.4731 22.9698 8.59236 3 
10.0476 24.415 10.047 3 
10.0407 21.5341 10.038 3 
8.61273 22.9747 11.4784 3 
11.4741 22.9483 11.4959 3 
14.3929 22.9926 8.63885 5 
15.0426 24.415 10.7866 5 
12.8172 24.415 10.0422 5 
14.2056 22.5773 11.6237 5 
15.7918 21.5809 10.0376 5 
12.8699 21.4983 10.0054 3 
17.3778 22.5776 8.45157 5 
20.1092 22.9484 8.57915 3 
16.5409 24.4149 9.28859 5 
18.7661 24.415 10.0329 5 
18.7136 21.4983 10.0697 3 
20.1104 22.9698 11.4828 3 
17.1906 22.9926 11.4363 5 
22.9705 22.9747 8.59657 3 
24.4064 21.5416 10.0362 3 
22.97 22.9787 11.4714 3 
24.4037 24.4151 10.0342 3 
21.5427 21.5342 10.0371 3 
21.5357 24.415 10.0281 3 
28.7119 22.9793 8.60154 3 
25.8406 22.9785 8.60023 3 
28.7115 22.9795 11.4726 3 
25.84 22.9794 11.4717 3 
27.2763 21.5433 10.0368 3 
27.2756 24.4151 10.0364 3 
2.87152 25.8507 8.60239 3 
1.43552 27.2864 10.0375 3 
2.87111 25.8509 11.4734 3 
5.7431 25.8507 8.60334 3 
5.74251 25.8517 11.4748 3 
4.30675 27.2868 10.0381 3 
7.17687 27.2885 10.0388 3 
8.61331 25.8514 8.60373 3 
11.473 25.8601 8.59233 3 
11.4741 25.8817 11.496 3 
8.61275 25.8554 11.4784 3 
10.0407 27.2958 10.0379 3 
14.3929 25.8373 8.63889 5 
14.2055 26.2528 11.6238 5 
15.7916 27.2491 10.0376 5 
12.8698 27.3316 10.0054 3 
17.3777 26.2525 8.45157 5 
20.1091 25.8816 8.57916 3 
17.1905 25.8374 11.4364 5 
18.7134 27.3317 10.0698 3 
20.1103 25.8602 11.4828 3 
22.9704 25.8554 8.59658 3 
21.5425 27.2959 10.0371 3 
22.9699 25.8515 11.4714 3 
24.4062 27.2885 10.0362 3 
28.7115 25.8507 11.4726 3 
28.7119 25.8509 8.60153 3 
25.8405 25.8517 8.60023 3 
27.2763 27.2868 10.0368 3 
25.84 25.8508 11.4717 3 
1.43516 1.4458 12.9092 3 
1.43483 1.44565 15.7809 3 
2.86961 2.88208 14.3455 3 
0.000152798 2.88148 14.3453 3 
2.87013 0.0103827 14.3452 3 
4.3048 1.44709 12.9099 3 
7.17198 1.45139 12.9117 3 
5.73919 0.0124552 14.3473 3 
4.3041 1.4471 15.7823 3 
7.17055 1.45161 15.7867 3 
5.73781 2.88493 14.347 3 
10.0326 1.46357 12.9156 3 
11.4436 0.0536632 14.3854 3 
8.60331 2.89164 14.3503 3 
8.60282 0.0198481 14.3548 3 
10.0298 1.46555 15.7992 3 
11.4747 2.89433 14.3543 3 
12.9067 1.46285 12.9224 3 
15.794 1.45733 12.9176 3 
14.3543 0.0419542 14.3714 3 
12.9134 1.46368 15.7964 3 
15.7953 1.45942 15.7923 3 
14.354 2.89092 14.3517 3 
18.6635 1.45324 12.9094 3 
18.6699 1.45526 15.7881 3 
17.2303 2.8894 14.3496 3 
20.1005 2.88646 14.3464 3 
20.0984 0.0134181 14.3443 3 
17.2421 0.030691 14.3623 3 
21.5423 1.45516 12.9159 3 
24.4085 1.44846 12.911 3 
21.5356 1.4483 15.7815 3 
24.4069 1.44677 15.7817 3 
22.974 2.88585 14.3482 3 
22.9724 0.0123396 14.3471 3 
27.2772 1.44608 12.9094 3 
27.2768 1.44557 15.7808 3 
25.8428 2.88263 14.3461 3 
28.7118 0.00980841 14.3446 3 
25.8416 0.0101957 14.3451 3 
1.43511 4.31735 12.9094 3 
1.43512 7.18848 12.9095 3 
0.00032833 5.75295 14.3456 3 
2.86941 5.75342 14.3456 3 
1.43475 4.31724 15.7813 3 
1.43474 7.18839 15.7814 3 
7.17217 4.32218 12.9103 3 
4.30404 4.31874 12.9096 3 
4.30433 7.18932 12.9094 3 
7.17454 7.19037 12.9097 3 
4.30399 7.18939 15.7818 3 
4.30357 4.3189 15.7822 3 
7.17143 4.32272 15.7844 3 
7.17416 7.19062 15.7824 3 
5.73831 5.75544 14.3461 3 
10.0428 4.32394 12.9115 3 
10.0463 7.19042 12.91 3 
11.4812 5.75683 14.3477 3 
10.0421 4.32525 15.7869 3 
10.046 7.19092 15.7828 3 
8.60863 5.75713 14.3471 3 
12.9166 4.32222 12.9124 3 
15.7914 4.32102 12.9112 3 
12.9188 7.18974 12.9101 3 
15.7914 7.18945 12.9096 3 
15.7923 4.32274 15.7846 3 
12.9175 4.32403 15.786 3 
12.9189 7.19048 15.7824 3 
15.7916 7.19013 15.7819 3 
14.3549 5.75582 14.3469 3 
18.6641 4.32125 12.9099 3 
18.6636 7.18963 12.9092 3 
18.6654 4.32183 15.7834 3 
18.6639 7.18992 15.7815 3 
20.1 5.75534 14.3457 3 
17.2279 5.75559 14.3462 3 
24.409 4.32027 12.9109 3 
21.5377 4.3217 12.9112 3 
21.5359 7.1898 12.9096 3 
24.4075 7.18955 12.9099 3 
22.9722 5.75505 14.3463 3 
21.5361 4.31997 15.782 3 
21.5355 7.18952 15.7813 3 
24.407 7.18907 15.7816 3 
24.4077 4.31894 15.7823 3 
27.2779 4.31792 12.9098 3 
27.2778 7.18881 12.9097 3 
27.2773 4.31738 15.7815 3 
27.2773 7.18849 15.7815 3 
25.8429 5.75395 14.346 3 
1.43507 10.0589 12.9095 3 
2.86957 8.62391 14.3455 3 
0.00019135 11.494 14.3456 3 
1.43473 10.0589 15.7814 3 
0.000227089 8.6237 14.3455 3 
2.8695 11.494 14.3455 3 
4.30465 10.059 12.9094 3 
7.17535 10.0591 12.9095 3 
5.73945 11.4935 14.3457 3 
4.30436 10.059 15.7816 3 
7.17508 10.0591 15.7818 3 
5.73952 8.62452 14.3456 3 
10.0471 10.0591 12.9097 3 
11.4829 11.4936 14.3459 3 
8.61072 11.4934 14.3459 3 
8.61076 8.62482 14.3459 3 
11.4829 8.62465 14.3459 3 
10.0469 10.0591 15.7819 3 
12.9193 10.0591 12.9096 3 
15.7914 10.0591 12.9092 3 
14.3553 8.62441 14.3455 3 
14.3553 11.4938 14.3455 3 
12.9192 10.0591 15.7816 3 
15.7915 10.0591 15.7812 3 
18.6635 10.059 12.909 3 
20.0995 8.6243 14.3451 3 
17.2276 11.4937 14.3452 3 
18.6636 10.059 15.7809 3 
20.0995 11.4936 14.3451 3 
17.2275 8.62434 14.3452 3 
21.5354 10.0589 12.9092 3 
24.407 10.0589 12.9095 3 
22.9713 11.4936 14.3454 3 
21.5353 10.0589 15.781 3 
24.4066 10.0589 15.7812 3 
22.9713 8.62419 14.3454 3 
27.2775 10.0588 12.9096 3 
25.8423 11.4938 14.3456 3 
27.2771 10.0589 15.7814 3 
25.8423 8.62394 14.3456 3 
1.435 12.9293 12.9095 3 
1.435 15.8006 12.9095 3 
1.43465 12.9295 15.7815 3 
1.43462 15.8007 15.7813 3 
2.86926 14.3645 14.3456 3 
0.000239928 14.3649 14.3456 3 
4.30387 15.7993 12.9097 3 
4.30417 12.9287 12.9095 3 
7.17444 12.9278 12.9097 3 
7.17202 15.7959 12.9103 3 
5.73815 14.3626 14.3462 3 
4.3034 15.7991 15.7822 3 
4.30385 12.9286 15.7818 3 
7.17407 12.9275 15.7825 3 
7.17128 15.7954 15.7844 3 
10.0463 12.9278 12.91 3 
10.0428 15.7942 12.9115 3 
8.60855 14.361 14.3471 3 
11.4812 14.3614 14.3476 3 
10.046 12.9273 15.7828 3 
10.042 15.7929 15.7868 3 
12.9189 12.9284 12.9101 3 
15.7914 12.9287 12.9096 3 
12.9167 15.7959 12.9124 3 
15.7915 15.797 12.9111 3 
14.355 14.3623 14.3469 3 
12.9189 12.9277 15.7824 3 
15.7917 12.928 15.7818 3 
12.9176 15.7941 15.786 3 
15.7924 15.7954 15.7845 3 
18.6637 12.9283 12.9092 3 
18.6643 15.7967 12.9098 3 
17.2281 14.3624 14.3462 3 
18.664 12.9281 15.7814 3 
18.6656 15.7962 15.7834 3 
20.1001 14.3626 14.3457 3 
21.536 12.928 12.9096 3 
21.5379 15.7962 12.9112 3 
24.4076 12.9282 12.9099 3 
24.409 15.7976 12.9109 3 
22.9723 14.3628 14.3462 3 
21.5356 12.9283 15.7813 3 
21.5362 15.798 15.7819 3 
24.407 12.9287 15.7815 3 
24.4077 15.7989 15.7822 3 
27.2778 12.9289 12.9097 3 
27.2779 15.7999 12.9098 3 
25.8429 14.3639 14.346 3 
27.2773 12.9293 15.7815 3 
27.2773 15.8005 15.7814 3 
1.43504 18.6722 12.9092 3 
1.43468 18.6724 15.7809 3 
2.86945 17.236 14.3455 3 
2.86999 20.1077 14.3452 3 
7.4236e-05 17.2365 14.3453 3 
4.30464 18.671 12.9099 3 
7.17185 18.6667 12.9118 3 
5.73764 17.2332 14.347 3 
4.30393 18.671 15.7823 3 
7.17042 18.6665 15.7867 3 
5.73906 20.1057 14.3474 3 
10.0326 18.6545 12.9156 3 
8.60321 17.2265 14.3503 3 
11.4748 17.2238 14.3542 3 
10.0298 18.6525 15.7991 3 
8.60274 20.0982 14.3548 3 
11.4437 20.0644 14.3853 3 
12.9068 18.6552 12.9224 3 
15.7942 18.6607 12.9176 3 
12.9136 18.6544 15.7963 3 
15.7955 18.6586 15.7922 3 
14.3542 17.2272 14.3516 3 
14.3544 20.0761 14.3713 3 
18.6638 18.6648 12.9093 3 
17.2305 17.2286 14.3495 3 
18.6701 18.6628 15.788 3 
17.2422 20.0873 14.3622 3 
20.1007 17.2315 14.3463 3 
20.0986 20.1046 14.3443 3 
21.5424 18.6628 12.9158 3 
24.4086 18.6695 12.9109 3 
22.9741 17.2321 14.3481 3 
22.9726 20.1057 14.347 3 
21.5357 18.6697 15.7814 3 
24.407 18.6713 15.7817 3 
27.2772 18.6719 12.9094 3 
25.8416 20.1079 14.345 3 
27.2768 18.6725 15.7808 3 
28.7117 20.1083 14.3446 3 
25.8428 17.2353 14.3461 3 
1.43514 24.4151 12.9085 3 
1.4351 21.5438 12.9088 3 
2.87041 22.9794 14.3446 3 
1.43479 21.544 15.7803 3 
1.43487 24.4151 15.78 3 
4.30587 21.543 12.9098 3 
4.30643 24.4151 12.9093 3 
7.17503 21.5401 12.9126 3 
7.17739 24.415 12.9104 3 
4.30493 21.5434 15.7813 3 
7.17378 21.5428 15.7838 3 
7.17452 24.415 15.7829 3 
4.30527 24.4151 15.7809 3 
5.74078 22.979 14.3458 3 
10.0352 21.5272 12.9246 3 
8.61009 22.9793 14.3478 3 
10.0403 21.5432 15.7886 3 
10.0415 24.415 15.7875 3 
11.4789 22.9896 14.3502 3 
10.0509 24.415 12.9094 3 
12.9713 24.415 12.8579 5 
12.8222 21.4399 13.0069 3 
15.824 21.4983 12.9593 3 
15.7871 24.415 13.012 5 
12.9045 21.5271 15.7936 3 
15.7914 21.5341 15.7883 3 
12.9198 24.415 15.778 3 
14.3333 22.9483 14.3549 3 
15.7822 24.415 15.7814 3 
18.6459 24.415 12.8917 3 
18.6556 21.5418 12.9013 3 
17.2371 22.9698 14.356 3 
18.6676 21.5392 15.785 3 
20.0938 22.9798 14.3395 3 
18.6636 24.415 15.7813 3 
21.5393 21.5392 12.9133 3 
24.4048 24.4151 12.9077 3 
21.5356 24.415 12.9095 3 
24.4061 21.5433 12.9089 3 
21.5331 21.5434 15.7789 3 
24.4056 21.5438 15.7803 3 
24.405 24.4151 15.7798 3 
21.5318 24.415 15.7777 3 
22.9701 22.9794 14.3447 3 
28.7115 22.9796 14.344 3 
27.2757 24.4151 12.9079 3 
27.2762 21.5439 12.9084 3 
25.8406 22.9796 14.344 3 
27.2762 21.5441 15.78 3 
27.2761 24.4151 15.7797 3 
1.43517 27.2864 12.9088 3 
2.87046 25.8508 14.3446 3 
1.43489 27.2862 15.7803 3 
4.30598 27.2872 12.9098 3 
7.17511 27.29 12.9126 3 
5.74084 25.8511 14.3458 3 
4.30506 27.2867 15.7813 3 
7.17387 27.2873 15.7838 3 
10.0352 27.3029 12.9247 3 
8.61013 25.8507 14.3479 3 
10.0403 27.2868 15.7887 3 
11.4788 25.8404 14.3502 3 
15.8238 27.3317 12.9593 3 
12.8221 27.3901 13.007 3 
12.9044 27.3029 15.7937 3 
15.7912 27.2959 15.7883 3 
14.3333 25.8817 14.355 3 
18.6555 27.2883 12.9014 3 
18.6674 27.2909 15.7851 3 
17.237 25.8602 14.3561 3 
20.0937 25.8503 14.3396 3 
24.406 27.2868 12.9089 3 
21.5392 27.2908 12.9134 3 
22.97 25.8508 14.3447 3 
21.533 27.2867 15.779 3 
24.4055 27.2863 15.7804 3 
28.7115 25.8506 14.3441 3 
25.8406 25.8506 14.344 3 
27.2762 27.2862 12.9084 3 
27.2763 27.286 15.7801 3 
1.43471 1.4453 18.6523 3 
2.86932 2.88188 17.2175 3 
2.86967 2.88119 20.0885 3 
2.86976 0.0100048 17.2168 3 
2.86991 0.00964739 20.0881 3 
4.30429 1.44614 18.6536 3 