ITEM: TIMESTEP
75000
ITEM: NUMBER OF ATOMS
2001
ITEM: BOX BOUNDS pp pp pp
0.0000000000000000e+00 2.8712000000000000e+01
0.0000000000000000e+00 2.8712000000000000e+01
0.0000000000000000e+00 2.8712000000000000e+01
ITEM: ATOMS x y z 
1.40256 1.53855 1.44224 
2.86584 2.95613 2.8991 
0.0370264 2.85046 2.78695 
2.83653 2.86683 0.0418779 
0.117632 2.79985 0.0214924 
4.3147 1.49565 1.42037 
7.09262 1.35083 1.5453 
5.65645 2.82045 2.81586 
5.73186 2.89071 0.0149137 
10.048 1.45357 1.26832 
8.43658 2.98474 3.08655 
11.413 2.79215 2.98705 
8.46563 2.93073 0.00218057 
12.6785 1.40084 1.53309 
15.6038 1.55949 1.42096 
14.3099 2.96855 2.88271 
14.1542 0.14204 2.96663 
18.4621 1.54659 1.21772 
17.258 2.8949 2.92697 
20.1151 2.93177 3.14589 
17.0495 0.141256 2.89377 
19.8541 0.0429981 2.92241 
16.9122 0.0505799 0.0651831 
22.7167 2.78677 3.06343 
24.2757 1.34213 4.09055 
24.2051 1.42341 1.57481 
21.1406 1.40863 1.43367 
22.8615 0.0554332 0.121466 
22.8336 2.78426 0.0860536 
27.2233 1.55962 1.22517 
25.8166 2.74615 3.01602 
25.8281 2.95142 0.00151706 
1.43111 4.26337 1.31057 
1.28709 7.03771 1.46407 
2.82293 5.89429 2.80604 
7.16616 4.26229 1.36819 
4.24303 4.4935 1.4627 
4.22288 7.32101 1.33969 
7.22892 7.11972 1.36521 
5.60727 5.77458 2.83826 
5.61319 5.72983 0.0745026 
9.9996 4.12354 1.44502 
10.0016 7.17208 1.54296 
8.59303 5.71828 2.86717 
11.3869 5.86329 2.9273 
11.4701 5.74977 0.120442 
12.8847 4.51201 1.46149 
15.7242 4.28183 1.58267 
12.8686 7.16969 1.59041 
15.6951 7.05272 1.52792 
14.458 5.69875 3.10087 
14.3791 5.66332 0.0842117 
18.5184 4.35551 1.23826 
18.6904 7.11424 1.50346 
17.121 5.6808 2.91546 
19.909 5.62286 2.90319 
17.1512 5.87005 0.144402 
21.2418 4.13872 1.48923 
21.4253 7.08094 1.32068 
22.8165 5.62352 2.63511 
24.3977 7.16133 1.2133 
24.3499 4.29167 1.59287 
28.6143 5.74609 3.0253 
28.5749 5.7432 0.164134 
27.3227 4.13367 1.48196 
27.1717 7.16335 1.48132 
25.7641 5.74934 2.92702 
25.9813 5.63269 0.0341533 
1.40872 9.97674 1.24687 
2.68127 8.72688 2.87583 
2.7284 11.7033 2.78728 
2.87725 11.6632 0.178779 
2.76143 8.54238 0.0689584 
4.22956 10.0904 1.55306 
7.09482 9.89566 1.45867 
5.6246 8.56426 2.96896 
5.80019 11.4782 2.9842 
5.59228 11.4715 0.159206 
10.0948 10.0722 1.52687 
8.58649 8.54013 2.87191 
11.4889 8.5703 3.02482 
8.41923 11.3338 2.83292 
11.2308 11.7091 2.85805 
8.47855 11.3138 0.197907 
11.4648 8.7078 0.158364 
11.3127 11.4658 0.174523 
12.8032 10.0738 1.53516 
15.6863 10.0142 1.44941 
14.2072 9.04156 2.98531 
14.0865 11.5861 2.88882 
14.4064 11.4617 0.0796135 
14.2633 8.61384 0.122659 
18.5435 10.1261 1.50844 
17.0372 8.67608 2.90741 
20.086 8.58728 2.76714 
17.1506 11.3475 2.99119 
20.1353 11.5557 3.05748 
17.3637 11.4578 0.0211454 
20.1093 8.63865 0.0418062 
19.9953 11.52 0.124871 
21.4826 10.0329 1.42251 
23.0692 8.38646 2.72385 
22.9913 11.3922 2.63992 
24.3752 9.99342 4.09143 
24.3522 9.9644 1.28201 
28.7045 11.4876 3.00698 
28.5853 8.54902 2.80984 
27.2486 9.99227 1.45048 
25.8014 8.47644 2.75874 
26.1294 11.6067 2.73962 
28.6184 11.3781 0.0825504 
25.771 11.66 0.139026 
1.17441 12.9407 1.36032 
1.53505 15.9986 1.37082 
2.74039 14.3808 2.76357 
0.0132014 14.5379 2.87105 
4.38898 15.7043 1.44073 
4.30053 13.0353 1.43605 
7.19628 12.9582 1.40955 
7.07812 15.904 1.52492 
5.69745 14.4139 2.80241 
9.73256 12.9681 1.45494 
10.0677 15.8489 1.36275 
8.43454 14.5777 2.90343 
11.2738 14.3111 2.88738 
11.5082 14.2858 0.0721973 
12.7228 12.8742 1.53902 
15.7868 12.9176 1.38839 
13.0096 15.772 1.45234 
15.7372 15.7891 1.4926 
14.1691 14.3874 2.82831 
14.2841 14.3502 0.141164 
18.6002 12.7723 1.64314 
18.6036 15.6852 1.46776 
17.1531 14.2572 2.78967 
20.124 14.241 2.95428 
17.2117 14.403 0.00477175 
21.6006 12.8278 1.4073 
21.551 15.7427 1.28617 
23.0552 14.5447 2.78417 
24.2443 12.856 4.04393 
24.4092 15.8853 4.07908 
24.5731 15.8358 1.4226 
24.3654 13.0094 1.50144 
27.3855 12.9738 1.3434 
27.328 15.7972 1.36503 
25.8861 14.3876 2.82215 
1.55031 18.7105 1.51023 
3.04136 17.2446 2.90175 
2.92591 20.142 2.85808 
0.0337322 20.103 2.79197 
0.111455 17.351 3.03622 
3.08894 20.2292 0.0248771 
4.33944 18.7568 1.25528 
7.19635 18.6505 1.13685 
5.69942 17.4716 2.7934 
5.87537 20.0801 2.60838 
10.2637 18.5369 1.33431 
8.54568 17.4106 2.88093 
11.5359 17.2808 2.91656 
8.37133 20.1422 2.74707 
11.5246 20.1918 3.01144 
11.7069 19.9836 0.0761872 
12.8977 18.5551 1.42048 
15.5979 18.6675 1.48514 
14.512 17.2725 3.03326 
14.4271 20.0794 2.95801 
14.2373 17.2312 0.0865643 
18.646 18.5903 1.38653 
17.2255 17.2524 2.61826 
20.2549 17.1648 2.71715 
17.2171 20.1433 2.78943 
20.1175 20.1063 2.72842 
17.2649 19.8011 0.0841248 
17.3192 17.198 0.135722 
21.5535 18.6178 1.29719 
24.5567 18.6854 1.56888 
22.9404 17.3569 2.66097 
23.0091 20.1864 2.50825 
27.3224 18.7771 1.31841 
25.9827 17.1044 2.75351 
25.8751 19.9088 2.9196 
1.30806 21.6587 1.32831 
2.82954 23.0422 2.88607 
1.59075 24.3919 1.4162 
4.3921 24.2952 1.40544 
4.31573 21.6936 1.37324 
7.32814 21.6387 1.37324 
5.86355 22.8777 2.75196 
7.3355 24.4544 1.34381 
5.90767 22.8991 0.0256763 
10.1013 21.4386 1.59993 
8.58668 22.8979 2.95245 
11.5705 23.0421 2.78965 
9.91844 24.3629 1.41164 
11.3076 22.9597 0.0272306 
12.902 21.6411 1.3386 
15.6031 21.4454 1.34231 
15.8342 21.4643 4.09889 
14.3855 23.0854 2.82035 
15.7116 24.3893 1.58699 
12.9548 24.3155 1.44597 
18.6994 21.2371 1.21736 
17.4313 22.704 2.6979 
20.1331 23.0304 2.69128 
18.5814 24.5412 1.31645 
21.4332 21.6363 1.24374 
24.5183 21.732 1.45306 
22.8088 22.9819 2.82424 
24.2769 24.4357 1.32578 
21.4182 24.5683 1.30924 
22.9994 23.0446 0.0164321 
28.7018 22.9071 2.88979 
27.2741 21.3901 1.30412 
25.9135 23.0546 2.89133 
27.3126 24.1867 1.37966 
25.9937 22.9361 0.0514133 
2.83008 28.5798 3.0134 
1.46415 27.4265 1.57735 
2.82917 26.0435 2.99153 
2.79798 28.5176 0.0668646 
3.05036 25.8131 0.0992241 
0.111348 25.8202 0.19556 
5.72924 28.684 2.97837 
4.34391 27.236 1.51776 
7.06005 27.1046 1.3773 
5.70893 25.6572 2.76946 
11.3771 28.6745 2.67149 
8.57786 28.5923 2.94341 
10.0318 27.2728 1.13886 
8.57017 25.9379 2.78362 
11.4819 25.7312 2.70688 
11.3355 25.812 0.0767998 
8.51316 28.6437 0.0297659 
12.8983 27.1859 1.49336 
15.5851 27.3466 1.35393 
14.3936 25.8557 2.86827 
18.3783 27.3995 1.50447 
17.1611 25.7537 2.94407 
20.0234 25.9315 2.81008 
22.8772 28.7092 2.88404 
21.3878 27.4494 1.4609 
22.7951 26.0144 2.78393 
24.5198 27.2479 1.21294 
25.9202 28.6212 2.67875 
28.7102 28.6278 2.85069 
28.5854 25.7464 2.74326 
27.2312 27.2194 1.29034 
25.7574 25.7465 2.76134 
1.34163 1.50411 4.24065 
1.38122 1.49998 7.0567 
2.95846 2.78715 5.64979 
2.86584 0.0788674 5.55971 
4.2317 1.37743 4.19772 
7.20441 1.37422 4.42754 
4.28162 1.3376 7.11191 
7.07035 1.35776 7.25272 
5.65018 2.89165 5.80859 
5.6562 0.0780617 5.66122 
10.0502 1.33029 4.25426 
9.86412 1.36613 7.23931 
8.67713 2.86482 5.73259 
11.2622 2.87289 5.73963 
11.4653 0.0141412 5.99687 
8.44232 0.027126 5.87909 
12.9274 1.50242 4.4015 
15.8534 1.65125 4.47647 
12.9641 1.47895 7.19736 
15.8099 1.38169 7.3424 
14.457 2.86483 5.83012 
14.3013 0.10885 5.72647 
18.5668 1.48807 4.28407 
18.6325 1.41988 7.08699 
17.1348 2.79495 5.91476 
20.1111 2.78838 5.49905 
21.5543 1.33571 4.41778 
21.1458 1.34023 7.26543 
23.045 2.71504 5.78344 
24.4523 1.32306 7.13458 
27.3292 1.40475 4.22103 
28.6735 2.83446 5.69406 
27.277 1.4818 7.08839 
25.7534 2.61444 5.75763 
25.6487 0.0297453 5.65882 
1.43611 4.1735 4.45307 
1.30511 7.08992 4.39353 
1.46754 4.47395 7.14565 
1.32555 7.01112 7.09186 
2.97316 5.67761 5.60602 
7.1156 4.40962 4.51305 
4.40774 4.31079 4.2196 
4.29589 7.14336 4.1376 
7.23324 7.38529 4.34726 
4.16352 4.37701 7.25122 
7.19527 4.3845 6.99506 
4.26523 7.16182 7.00206 
5.56988 5.72874 5.93412 
7.19463 7.35349 7.03088 
10.0311 4.32631 4.25453 
10.034 7.13673 4.42572 
10.0253 4.46423 7.19401 
8.57154 5.74764 5.61732 
9.99293 7.27315 7.21985 
11.4574 5.8865 5.84369 
12.6648 4.2934 4.37859 
15.7694 4.13351 4.22177 
12.8677 7.16471 4.41328 
15.7062 7.42087 4.13277 
12.8767 4.37784 7.16 
15.8277 4.33036 7.05648 
13.0198 7.16549 7.21198 
14.5801 5.81297 5.87245 
15.6362 7.34202 7.33328 
18.4277 4.32135 4.43097 
18.589 7.20385 4.32775 
18.4493 4.34881 7.03582 
17.1018 5.97151 5.72933 
18.5909 7.22377 7.09841 
19.9164 5.72304 5.81626 
21.2782 4.50273 4.28426 
21.5392 7.0409 4.2958 
24.1302 6.99443 4.20791 
24.2106 4.13616 4.174 
21.4434 4.19593 7.41421 
24.4742 4.23174 7.11459 
21.4762 7.19764 7.21465 
22.9747 5.7638 5.78654 
24.3435 7.13952 7.1588 
27.1648 4.24935 4.36951 
27.2387 7.14038 4.23048 
27.243 4.27821 7.0916 
28.6662 5.64681 5.61284 
25.7452 5.71955 5.70372 
27.1124 7.15389 6.99849 
1.36643 10.0709 4.27263 
1.41709 9.8564 7.19536 
2.69009 8.5593 5.60878 
2.90874 11.3683 5.6532 
0.140647 11.5015 5.74455 
4.29784 10.0044 4.30336 
7.17226 9.92553 4.37318 
4.37317 10.1155 7.2752 
5.67972 8.56513 5.4968 
7.15981 10.0924 7.13645 
5.60458 11.4423 5.68878 
10.1489 9.84795 4.32511 
8.66191 8.75145 5.85557 
10.096 10.1171 7.22096 
11.4325 8.7725 5.86975 
8.55448 11.5651 5.68154 
11.4042 11.611 5.72902 
12.7731 10.2973 4.28517 
15.6829 10.0395 4.4894 
13.0173 10.0506 7.13771 
14.1714 8.67871 5.64931 
15.9253 10.2385 7.27348 
14.4505 11.5405 5.85882 
18.6703 10.0546 4.43482 
20.0297 8.56236 5.74531 
17.0978 8.69582 5.68321 
18.5435 9.94344 7.32193 
17.5221 11.5384 5.85263 
20.0354 11.5969 5.86313 
21.4873 9.99829 4.1312 
21.5163 9.86984 7.11223 
22.8527 8.56754 5.77837 
23.0858 11.1979 5.54413 
24.4041 9.80898 7.22202 
27.2384 9.97382 4.15493 
28.6489 8.70361 5.6179 
25.8499 8.5836 5.67835 
27.3217 10.1434 7.09882 
25.6898 11.4089 5.53995 
1.5721 13.1107 4.19036 
1.44581 15.7824 4.41875 
1.56842 12.8021 7.14898 
1.48036 15.8151 7.37677 
3.037 14.2737 5.84842 
0.133629 14.2421 5.77843 
4.31643 12.9552 4.32276 
4.36385 15.8289 4.31128 
7.18237 12.8839 4.32456 
7.0499 15.8782 4.41779 
4.37803 12.9366 7.31236 
4.33446 15.7678 7.27549 
7.1099 13.0546 7.1141 
5.74843 14.428 5.8631 
6.99521 15.7662 7.25771 
9.93941 13.0782 4.31798 
10.1383 15.8065 4.26328 
10.0695 12.8962 7.04749 
8.53194 14.4373 5.85549 
10.0786 15.9251 7.12019 
11.3643 14.4356 5.81151 
12.8942 13.0385 4.31964 
15.8439 12.7289 4.36949 
12.8678 15.8121 4.29899 
15.7516 15.689 4.32922 
12.7998 13.0309 7.13712 
15.5552 13.0235 7.27278 
12.772 15.9743 7.29088 
14.3836 14.4404 5.64322 
15.5576 15.7601 7.08104 
18.6407 13.0187 4.44853 
18.6868 15.8186 4.29882 
18.6155 12.9821 7.38637 
17.2069 14.278 5.93018 
18.6902 15.7934 7.15393 
20.17 14.463 5.73739 
21.585 12.8954 4.28809 
21.5617 15.9502 4.11646 
21.4746 12.8553 7.27256 
21.5493 15.7055 7.17796 
23.1205 14.2415 5.58321 
24.3483 12.7296 7.04785 
24.4494 15.6802 7.24432 
27.2742 12.9957 4.3705 
27.3644 15.6792 4.41426 
27.4117 12.9334 7.23834 
25.6791 14.4308 5.73711 
27.3207 15.8802 7.23798 
1.57598 18.5949 4.35753 
1.52336 18.6307 7.27817 
3.01283 17.0579 5.83 
2.94369 20.0923 5.64448 
0.0619558 17.2219 5.69006 
4.36437 18.6303 4.40954 
7.15368 18.7311 4.34559 
4.18666 18.6383 7.27727 
5.64169 17.3789 5.73008 
7.05899 18.8577 7.26571 
5.69803 20.1298 5.57347 
10.095 18.651 4.38562 
8.60857 17.3615 5.7553 
10.049 18.7166 7.34663 
11.5621 17.3747 5.68902 
8.54703 20.3072 5.74588 
11.6406 20.3238 5.63625 
12.9926 18.6445 4.37602 
15.9869 18.7884 4.20371 
12.9618 18.6058 7.19527 
14.3834 17.2536 5.70099 
15.7599 18.8431 7.31423 
14.1393 20.2322 5.76548 
18.7525 18.6194 4.34149 
17.157 17.0866 5.66389 
18.7631 18.859 7.13449 
20.1989 17.0893 5.71109 
17.2562 20.2101 5.75664 
20.3093 19.9972 5.57572 
21.604 18.5995 4.10649 
24.4448 18.5685 4.28725 
21.4212 18.5798 6.99829 
22.9573 17.0968 5.58629 
22.9641 19.9106 5.60777 
24.4683 18.6199 6.97362 
27.2344 18.576 4.26696 
28.705 20.053 5.68706 
25.8373 17.0935 5.66523 
27.3399 18.725 7.08523 
25.9277 20.094 5.80464 
1.44144 21.4382 4.20048 
1.45975 24.47 4.37766 
1.40843 21.4058 7.02848 
2.82771 23.0109 5.82982 
1.44172 24.4482 6.94852 
0.0353345 23.054 5.67894 
4.23203 21.7506 4.15575 
4.26392 24.3728 4.33368 
7.04229 21.5968 4.23446 
7.26111 24.4692 4.17029 
4.18905 21.7575 7.13657 
7.03525 21.5227 7.16132 
5.93077 23.1015 5.83198 
7.14332 24.4452 7.30687 
9.9567 21.6723 4.31232 
10.097 24.5051 4.22387 
10.0377 21.8809 7.08502 
8.52637 23.2601 5.66249 
11.5687 23.1692 5.79977 
9.95347 24.3928 7.18231 
12.9346 21.7283 4.20568 
15.9759 24.2767 4.24024 
12.876 24.4716 4.238 
12.8602 21.659 7.26729 
15.6618 21.4895 7.11677 
14.399 23.0196 5.66298 
12.9614 24.4456 7.04082 
15.7863 24.4188 6.90296 
18.6898 21.38 4.17508 
18.8142 24.3004 4.31014 
18.9208 21.5396 7.03828 
17.2256 22.8437 5.67926 
20.1356 22.8801 5.56482 
18.5883 24.4602 7.29057 
21.4776 21.5043 4.11155 
24.3081 21.435 4.12157 
24.2497 24.4536 4.12496 
21.4727 24.5324 4.24193 
21.6073 21.5111 7.13363 
23.0164 22.829 5.52629 
24.2949 24.5325 6.92719 
24.4322 21.2516 7.04037 
21.3448 24.3037 7.15846 
27.2477 21.4781 4.11375 
27.2037 24.4288 4.39535 
27.2118 21.5919 6.97376 
25.6506 22.8682 5.61462 
27.0655 24.4118 6.96991 
1.3714 27.2121 4.16329 
0.0349369 28.678 5.64674 
1.54436 27.3538 7.04598 
2.98136 25.9874 5.63947 
0.0847533 25.7875 5.64465 
4.49819 27.183 4.316 
7.1858 27.2698 4.36656 
4.28404 24.6215 7.10025 
4.32877 27.2647 7.16206 
5.90885 25.6176 5.56199 
7.00598 27.2396 7.29588 
10.0479 27.2873 4.33995 
8.87348 25.8555 5.69881 
9.85839 27.4037 7.18331 
11.4474 25.765 5.72736 
12.7319 27.2985 4.34802 
15.8837 27.225 4.29193 
12.9402 27.2621 7.13705 
14.304 25.9553 5.50931 
15.8422 27.1641 7.03983 
18.5458 27.403 4.24879 
20.122 28.5921 5.63981 
17.1027 28.6939 5.80776 
17.2909 25.7733 5.61438 
18.6961 27.353 7.12994 
19.9987 25.8344 5.75852 
21.5253 27.4083 4.3589 
24.308 27.2473 4.19423 
22.8682 28.6262 5.74078 
21.5302 27.2312 7.15947 
22.8555 25.8277 5.56601 
24.3208 27.1826 7.15144 
27.0237 27.3719 4.32188 
25.6817 25.8323 5.5669 
27.254 27.2071 6.93924 
2.8199 2.80984 8.57423 
0.164715 2.92349 8.60653 
0.0247257 0.0373013 11.6323 
1.41246 1.38925 9.91062 
2.69786 2.87771 11.34 
0.137038 3.10672 11.1855 
2.84788 0.0803922 11.4849 
5.66629 3.15228 8.49514 
5.6245 0.0997091 8.59559 
4.38584 1.57977 9.92886 
6.97123 1.57969 10.0816 
5.83531 2.9402 11.5627 
8.50585 2.79617 8.59288 
11.3143 2.82371 8.37959 
8.59408 0.111328 8.67148 
11.4222 0.0292946 8.76101 
8.40804 0.0639032 11.3632 
10.0106 1.40683 10.1349 
8.52964 2.93737 11.4558 
11.333 2.94808 11.3866 
11.5807 0.0761122 11.5268 
14.2723 2.66595 8.57843 
14.4377 0.129338 11.4585 
12.8448 1.48088 10.0498 
15.7773 1.59919 10.1026 
14.4219 2.85018 11.5567 
17.2457 3.12103 8.65886 
19.8757 2.84933 8.6695 
19.9122 0.0518583 8.73045 
17.271 0.0590791 8.73347 
17.2319 0.0530414 11.5977 
20.2272 0.0255374 11.7826 
18.5897 1.31309 10.2319 
17.3086 2.86025 11.5627 
20.0692 2.76087 11.5938 
22.9346 2.65259 8.53986 
22.9359 0.0393563 11.6835 
21.4545 1.32547 10.0814 
23.0244 2.65615 11.5478 
24.4863 1.38482 10.0449 
21.4497 3.96849 10.1667 
25.877 2.90458 8.64864 
25.9013 0.164972 11.5213 
27.3677 1.40718 10.018 
25.84 2.90559 11.5251 
2.93507 5.86632 8.49069 
1.48419 4.49348 9.8342 
1.2745 7.12204 9.91378 
2.93845 5.76212 11.4071 
5.9844 5.98126 8.55207 
4.25941 4.36768 9.99324 
4.47661 7.31962 10.2332 
7.18659 4.38975 9.94673 
7.34979 7.40686 10.1203 
5.66565 5.83936 11.5589 
8.62019 5.71796 8.62435 
11.4784 5.76061 8.5836 
9.93154 4.24479 10.036 
10.1961 7.31789 9.97432 
8.62251 5.87729 11.3939 
11.6852 5.75401 11.5396 
14.3172 5.87167 8.7112 
12.9699 4.33186 10.0615 
15.8916 4.35011 9.91296 
12.8211 7.24675 10.0665 
15.6366 7.18557 10.1583 
14.3293 5.68011 11.4606 
17.1498 5.83037 8.69981 
20.1355 5.68963 8.56844 
18.6605 4.19207 10.1636 
18.7122 7.20448 9.91981 
17.2612 5.65906 11.4462 
19.9478 5.75296 11.5257 
22.9661 5.58661 8.57153 
21.6152 7.03161 10.0729 
23.049 5.60164 11.6218 
24.3935 4.13023 9.93659 
24.4905 7.01872 10.0719 
28.6317 5.77779 8.55798 
25.8323 5.67096 8.54059 
28.6744 5.68358 11.4917 
27.379 4.42815 9.94362 
27.2589 7.03539 10.1071 
25.6685 5.61523 11.5654 
2.92264 8.53099 8.50231 
2.81808 11.3036 8.64138 
0.0415429 11.2549 8.57038 
1.46586 9.95446 10.019 
2.64215 8.48467 11.5691 
2.97811 11.3522 11.5894 
0.0317345 11.3764 11.6452 
0.00689064 8.62524 11.3989 
5.7362 8.67847 8.66551 
5.89047 11.3808 8.6358 
4.2736 10.0841 10.0595 
7.28428 10.0575 10.2069 
5.70819 8.61966 11.5216 
6.00288 11.6175 11.381 
8.65334 8.70486 8.71402 
11.6038 8.72012 8.44228 
8.59918 11.6466 8.49702 
11.5402 11.507 8.69463 
11.3285 8.6979 11.3858 
9.99995 10.0946 10.0225 
8.6381 8.71543 11.5996 
8.60003 11.5576 11.4444 
11.4767 11.7266 11.3843 
14.358 8.82826 8.57401 
14.3059 11.4609 8.78879 
12.8786 10.0345 10.1 
15.7607 10.1118 10.1725 
14.2935 8.59802 11.5142 
14.3753 11.6062 11.4875 
17.1856 8.54629 8.67372 
20.1566 8.62102 8.64674 
17.1757 11.4396 8.63774 
19.9333 11.2459 8.66003 
18.5334 9.90326 10.0994 
17.1725 8.40407 11.4911 
20.0766 8.47896 11.3477 
17.2222 11.7252 11.2908 
20.0481 11.3735 11.5455 
22.8026 8.64344 8.54135 
23.0614 11.4939 8.59376 
21.5334 9.95342 10.1826 
23.288 8.51909 11.4438 
23.114 11.4115 11.3383 
24.4553 9.97339 10.0864 
28.5889 8.55257 8.45363 
25.8841 8.45139 8.60619 
25.8135 11.4352 8.57942 
27.2805 10.0064 9.89474 
25.918 8.56122 11.3826 
25.8641 11.5172 11.3763 
2.75085 14.329 8.80062 
0.063787 14.2826 8.80743 
1.4389 12.8628 10.1383 
1.26063 15.7336 10.1036 
2.84927 14.3889 11.5544 
5.84384 14.4231 8.70074 
4.28753 12.8595 10.0268 
4.37408 15.7498 10.1405 
7.16764 13.005 10.0115 
7.08083 15.8323 10.0096 
5.8316 14.4112 11.4717 
8.64027 14.3529 8.58728 
11.4776 14.332 8.38575 
10.2352 13.056 9.97532 
9.81044 15.7628 9.99507 
8.54804 14.4152 11.5366 
11.5511 14.3326 11.4408 
14.1482 14.6558 8.75132 
12.9292 13.0587 10.0966 
15.6772 13.0632 10.0553 
12.7694 15.9798 10.1801 
15.9573 15.9404 9.81654 
14.4119 14.4844 11.3254 
17.2433 14.3818 8.54114 
20.162 14.4147 8.69592 
18.8304 12.8437 9.87802 
18.7972 15.834 10.0117 
17.3889 14.3992 11.1893 
20.2831 14.4178 11.3838 
22.9917 14.3448 8.61784 
21.3996 12.6914 9.8549 
21.6039 15.8696 9.91829 
23.0289 14.3208 11.3974 
24.5681 15.914 9.96194 
24.4688 12.9835 9.97114 
26.1574 14.3511 8.62699 
28.5657 14.4991 11.5328 
27.4825 12.6721 10.1639 
27.3257 15.9526 10.1219 
25.8822 14.2906 11.4324 
2.81881 17.2944 8.76669 
2.9352 20.1732 8.76823 
0.0241876 20.2433 8.54796 
1.41643 18.7583 10.2118 
2.68023 17.0533 11.6717 
2.81644 20.1653 11.6121 
0.130759 20.2983 11.5601 
5.71984 17.4528 8.63887 
5.7325 20.078 8.79019 
4.13725 18.762 10.278 
7.21832 18.718 10.0845 
5.57501 17.2395 11.3836 
5.67522 20.1523 11.466 
8.43774 17.2362 8.53474 
11.528 17.2485 8.69161 
8.45462 20.1805 8.60126 
11.4492 20.3528 8.56436 
9.83079 18.906 9.82046 
8.48726 17.2508 11.391 
11.2154 17.3352 11.4547 
8.48637 20.0232 11.7385 
11.336 20.2288 11.5029 
14.4733 17.2873 8.81523 
14.3541 20.2595 8.68218 
12.754 18.8501 10.2278 
15.7517 18.8691 10.0017 
14.3688 17.1968 11.4685 
14.0684 20.2362 11.6631 
17.2324 17.2012 8.41149 
20.2208 17.3735 8.52245 
17.1248 20.2274 8.67744 
20.3205 20.0742 8.81129 
18.699 18.692 10.0872 
17.1866 17.0342 11.3717 
20.1104 17.1673 11.6581 
17.1447 19.9935 11.6302 
20.1407 20.133 11.474 
23.0391 17.1581 8.60414 
22.9216 19.8989 8.63822 
21.4411 18.5799 10.2101 
23.3316 17.2428 11.44 
23.1256 19.8885 11.5532 
24.5074 18.6963 9.86322 
28.7118 17.3334 8.62356 
25.9677 17.3131 8.60057 
25.8784 20.1027 8.33531 
28.6381 17.3372 11.5063 
27.4126 19.0487 10.0461 
25.9945 17.1858 11.4949 
25.7857 20.1046 11.4455 
2.83802 23.1673 8.54288 
1.42561 24.5534 10.013 
1.4175 21.8953 10.0501 
2.83801 22.8684 11.5358 
5.70933 22.986 8.78753 
7.21358 24.3496 10.1204 
4.29206 24.4256 10.2107 
4.17669 21.784 9.95688 
7.20324 21.5464 10.2683 
5.83667 22.924 11.6035 
8.51255 23.0033 8.63167 
11.4631 23.1913 8.62518 
10.1066 24.5013 9.95109 
9.97096 21.7046 10.1492 
8.66629 23.1464 11.5277 
11.3067 23.1515 11.7016 
14.3613 23.0081 8.74537 
15.12 24.3809 10.5698 
12.8601 24.4499 10.1696 
14.0486 22.748 11.772 
15.6328 21.5611 10.3713 
12.7675 21.746 9.96449 
17.1021 22.4713 8.47674 
20.1273 22.8966 8.67562 
16.7432 24.3655 9.09975 
18.8367 24.5737 10.1303 
18.6687 21.5743 10.0639 
20.2342 23.0147 11.5338 
17.2622 22.9991 11.4585 
22.9464 22.9558 8.65268 
24.6038 21.4712 9.97788 
23.1403 22.697 11.5173 
24.232 24.4337 9.95727 
21.6528 21.5024 10.2859 
21.5783 24.479 9.91015 
28.6066 23.0551 8.43713 
25.7326 22.8841 8.48781 
28.6974 22.9434 11.6239 
25.7906 22.9654 11.2636 
27.4006 21.5765 9.87058 
27.2438 24.2855 9.94734 
2.72292 28.6488 8.48221 
2.65708 25.9684 8.71948 
0.0273958 25.7896 11.5836 
1.11656 27.4833 10.0203 
3.0222 25.6862 11.6313 
5.66947 25.9391 8.71684 
5.52774 28.6967 11.3735 
5.83904 25.9038 11.4562 
4.21992 27.4921 10.0758 
7.07628 27.3382 10.0587 
8.51741 25.8869 8.56102 
11.3758 25.8762 8.61309 
11.668 25.7993 11.5787 
8.70739 25.77 11.4511 
10.0686 27.3566 10.1271 
14.3745 28.66 8.67857 
14.4439 25.6902 8.63752 
14.3428 26.1427 11.6363 
15.8145 27.2524 9.90432 
12.9519 27.2864 10.1191 
17.4327 26.2826 8.5707 
20.0691 25.9787 8.45093 
17.1745 25.7202 11.3098 
18.7693 27.3727 10.1706 
20.1486 25.832 11.6102 
22.9375 28.5815 8.59919 
22.9623 25.7899 8.63308 
21.5874 27.2951 10.0528 
23.0047 25.8929 11.4859 
24.4652 27.3723 10.1771 
28.6455 28.5994 8.42927 
25.9108 28.545 8.48306 
28.6409 25.7776 8.43666 
25.658 25.8927 8.51584 
27.305 27.1287 9.95194 
25.9511 25.8152 11.185 
1.36007 1.64854 13.1161 
1.51617 1.50394 15.7958 
3.10755 2.85231 14.505 
0.0945532 3.02945 14.4198 
4.22016 1.51225 12.8293 
7.13523 1.24558 12.6793 
5.68599 0.113274 14.2612 
4.3353 1.28955 15.8292 
7.1527 1.43291 15.6811 
5.79609 2.74663 14.3811 
10.0561 1.36816 12.6535 
11.3698 0.0385807 14.2205 
8.5714 2.93476 14.2737 
8.50495 0.123571 14.2922 
10.0143 1.62599 15.7029 
11.6174 3.12194 14.4525 
12.8267 1.53613 12.8494 
15.7951 1.44588 12.9633 
12.8773 4.03164 12.8752 
14.3433 0.0768803 14.2157 
12.7538 1.46704 15.8442 
15.7888 1.49545 15.8586 
14.2903 2.89674 14.473 
18.7601 1.40363 13.0685 
18.6617 1.35265 15.8548 
17.2323 2.84914 14.4047 
20.2028 2.78901 14.6436 
21.5323 1.50693 13.1521 
24.4333 1.23487 12.8633 
24.4165 3.97599 13.0152 
21.522 1.36235 15.8851 
24.459 1.42664 15.7852 
23.1125 2.8016 14.5573 
27.2179 1.66464 13.0984 
27.5189 1.40844 15.5808 
25.8656 2.94903 14.5424 
1.45467 4.1605 12.8531 
1.58001 7.02049 12.8105 
0.0245123 5.71583 14.224 
2.98797 5.62964 14.3086 
1.76309 4.2839 15.8676 
1.46481 7.11236 15.8257 
7.0767 4.37599 12.9092 
4.37659 4.20377 12.9305 
4.26703 7.16266 13.1037 
7.24227 7.12831 12.9609 
4.18407 7.06175 15.8245 
4.39199 4.33177 15.8402 
7.16497 4.38661 15.9892 
7.19723 7.33953 15.7829 
5.73304 5.70717 14.4375 
9.84782 4.38545 12.7927 
9.99305 7.22007 12.7733 
11.4528 5.71041 14.1584 
9.95749 4.27985 15.6751 
10.0812 7.16012 15.6748 
8.64513 6.02328 14.3919 
15.9967 4.35767 12.8944 
12.8808 7.15402 12.9777 
15.5644 7.26792 12.9519 
15.849 4.39327 15.7357 
12.9194 4.51135 15.7898 
12.8413 7.14861 15.7497 
15.773 7.15064 15.6805 
14.3581 5.83482 14.4543 
18.7043 4.37037 13.0582 
18.7998 7.22585 13.037 
18.6712 4.31852 15.8165 
18.8621 7.31442 15.7395 
20.1942 5.83704 14.3659 
17.2831 5.98885 14.3644 
21.5169 4.29613 13.0046 
21.5035 7.22241 12.7359 
24.4965 7.25948 12.937 
23.1801 5.86728 14.2322 
21.7575 4.525 15.7263 
21.8468 7.52267 15.7231 
24.556 7.14474 15.7921 
24.3868 4.37467 15.9627 
27.218 4.43994 12.9235 
27.1197 7.16842 13.0138 
27.3944 4.37575 15.9685 
27.4398 7.23427 15.7361 
25.8282 5.79865 14.5557 
1.47298 10.0188 12.918 
3.09914 8.50418 14.3096 
0.0645442 11.4198 14.3451 
1.51109 10.0093 15.7882 
0.175755 8.54015 14.3999 
2.97152 11.4594 14.402 
4.47349 10.055 12.9722 
7.21155 10.0432 13.2233 
5.88017 11.3759 14.3527 
4.47237 9.97325 15.8179 
7.36568 10.0772 15.8946 
5.7712 8.54415 14.3648 
10.1484 10.0552 12.8352 
11.4642 11.6032 14.3208 
8.87116 11.4896 14.2159 
8.90832 8.69982 14.3012 
11.5352 8.74409 14.2495 
10.2405 9.87957 15.756 
12.8865 10.2057 13.0047 
15.9112 10.0073 12.845 
14.3465 8.72825 14.242 
14.4882 11.5033 14.1148 
13.0665 10.0992 15.7246 
15.9513 10.2388 15.7404 
18.5628 10.0755 12.7376 
19.9102 8.71523 14.2672 
17.1141 11.6778 14.2293 
18.67 10.221 15.7198 
20.1747 11.4692 14.3845 
17.2363 8.63621 14.5098 
21.6274 9.79567 12.7626 
24.5905 10.1464 12.8734 
22.9259 11.3294 14.3392 
21.4736 9.81072 15.6858 
24.4702 10.2534 15.8793 
23.2613 8.59148 14.3593 
27.3055 9.89246 12.7784 
26.0197 11.3882 14.2708 
27.3642 9.88045 15.783 
25.8297 8.87264 14.4053 
1.50167 12.8957 12.9471 
1.26763 15.918 13.0048 
1.30892 12.881 15.8305 
1.39172 15.6855 15.9285 
2.58612 14.4493 14.441 
4.3188 15.6859 12.8513 
4.32313 12.885 12.9754 
7.27512 12.8613 13.0898 
7.14706 15.8272 12.8605 
5.68192 14.3308 14.1745 
4.37247 15.7131 15.9807 
4.26237 13.0497 15.6347 
7.21423 12.8689 15.7586 
7.16501 15.8995 15.6986 
10.0724 12.9908 12.8531 
10.0302 15.8197 12.8093 
8.65916 14.3743 14.3263 
11.5386 14.2938 14.2329 
10.0621 12.8075 15.95 
9.94696 15.6543 15.7064 
12.9915 13.0185 12.9838 
15.8546 13.2838 12.8067 
12.9176 15.8532 12.8571 
15.7523 15.9529 12.7626 
14.5478 14.4869 14.2688 
13.1768 12.9539 15.6266 
15.775 13 15.6488 
12.9294 15.7653 15.6739 
15.8827 15.8591 15.7068 
18.773 12.8884 12.7067 
18.767 15.7568 12.7048 
17.2754 14.4358 14.1292 
18.6737 12.9053 15.7185 
18.7329 15.7422 15.5363 
20.228 14.053 14.4548 
21.567 12.9522 12.6601 
21.6259 15.8137 12.8026 
24.5446 12.866 12.8232 
24.4601 15.6973 12.9498 
22.9242 14.2455 14.0801 
21.6484 12.7779 15.9041 
21.6389 15.619 15.5247 
24.4479 12.794 15.7215 
24.4455 15.6645 15.7927 
27.4385 12.9819 12.8989 
27.28 15.8897 13.0607 
25.886 14.1044 14.2841 
28.7007 14.477 14.3933 
27.3191 12.9607 15.7622 
27.0553 15.833 15.8858 
1.37208 18.6593 13.0991 
1.34132 18.7171 15.7074 
2.88728 17.1758 14.4453 
2.71564 20.0185 14.4606 
4.31241 18.6763 12.9568 
7.16876 18.5994 13.0406 
5.64256 17.3739 14.3546 
4.17763 18.6423 15.8785 
7.16455 18.6311 15.793 
5.68867 20.072 14.4178 
10.0332 18.8129 12.9837 
8.63126 17.1929 14.194 
11.2413 17.1974 14.2833 
10.0894 18.6475 15.9983 
8.68968 19.8584 14.5272 
11.2102 20.0582 14.5284 
12.646 18.6333 12.9763 
15.5329 18.7325 12.8661 
12.7608 18.6574 15.7805 
15.8385 18.7669 15.6826 
14.2868 17.2813 14.5284 
14.2894 20.1027 14.399 
18.6444 18.6651 13.0222 
17.2273 17.3917 14.1774 
18.7038 18.7112 15.8307 
17.2797 20.1286 14.4335 
20.0955 17.3564 14.367 
20.1034 19.9736 14.4566 
21.6703 18.6085 13.1842 
24.5538 18.6112 12.7195 
22.8996 17.189 14.3044 
23.1426 20.1386 14.1475 
21.5955 18.5885 15.8447 
24.3907 18.6832 15.614 
27.3347 18.7236 12.9213 
25.7751 20.0404 14.3469 
28.582 17.1396 14.4677 
27.3056 18.6942 15.9102 
28.5735 20.0198 14.452 
25.8156 17.166 14.3962 
1.35928 24.4462 12.8892 
1.3816 21.6165 13.175 
3.12692 22.9898 14.2897 
1.53431 21.5394 15.8498 
1.44056 24.3964 15.8269 
0.039043 22.9056 14.5177 
4.34696 21.5684 13.0644 
4.46949 24.2503 12.8323 
7.21911 21.4212 12.9904 
7.26452 24.4627 12.8805 
4.36765 21.5264 15.693 
7.17131 21.5485 15.8179 
7.23849 24.537 15.9489 
4.30975 24.5225 15.6765 
5.80388 22.9431 14.5109 
9.91967 21.6167 13.0752 
8.6639 23.2679 14.2962 
10.0348 21.6836 15.9014 
10.2123 24.5405 15.9772 
11.4623 23.0246 14.4317 
12.8473 24.4248 13.1283 
12.6879 21.5938 13.0292 
15.8882 21.5277 12.8956 
15.8886 24.2614 12.9246 
12.987 21.6755 15.9354 
15.8757 21.6449 15.807 
12.9107 24.4637 15.8736 
14.3873 22.9245 14.404 
15.8514 24.2295 15.8641 
18.6481 24.4556 12.8543 
18.8779 21.4103 13.0326 
17.357 23.007 14.2703 
18.7523 21.5389 15.591 
20.2962 23.0035 14.4193 
18.7925 24.4629 15.8445 
21.6591 21.4077 12.8447 
24.3205 24.1812 12.7995 
21.5522 24.4692 12.8757 
24.5246 21.5978 12.7979 
21.5854 21.3566 15.6219 
24.4223 21.5996 15.7923 
24.4454 24.4985 15.7478 
21.7138 24.522 15.8412 
22.9706 23.0642 14.601 
27.3411 24.3256 12.8841 
27.2227 21.6488 12.8765 
25.7728 22.8581 14.1981 
27.3739 21.741 15.9185 
27.3134 24.3494 15.6791 
1.45623 27.4171 12.7516 
0.154766 28.5313 14.3295 
2.88552 25.896 14.261 
0.0868188 25.8336 14.2506 
1.52759 27.1608 15.7789 
3.00087 28.6958 14.3992 
4.32978 27.185 12.9555 
7.07901 27.156 12.8342 
5.92466 25.8017 14.3385 
4.39177 27.2109 15.7393 
7.22981 27.1463 15.8192 
10.0984 27.2511 12.7545 
10.1782 24.6637 13.1149 
8.76606 26.0061 14.338 
10.1962 27.3422 15.7929 
11.615 25.9709 14.4133 
15.8914 27.2698 13.1029 
12.9197 27.4605 12.859 
12.9034 27.4243 15.6954 
15.6585 27.2713 15.7447 
14.3014 25.8418 14.4527 
18.5735 27.1168 12.9146 
18.7593 27.1221 15.6899 
17.0929 25.7906 14.4267 
20.1472 25.7737 14.4167 
20.1061 28.6801 14.3732 
17.2918 28.5824 14.4955 
24.5087 27.4131 12.8177 
21.4615 27.1343 12.9248 
23.2144 25.9444 14.219 
21.535 27.1974 15.6656 
24.2321 27.2617 15.7847 
22.7631 28.5707 14.3586 
25.8905 25.5785 14.3537 
27.1571 27.2723 12.9499 
27.3382 27.3181 15.7596 
25.822 28.539 14.3903 
1.35748 1.26269 18.7269 
3.0247 2.67039 17.3203 
0.255761 2.96378 17.1911 
2.88537 2.85152 20.2358 
0.183268 2.90034 20.0963 
4.32093 1.38943 18.7576 
7.0882 1.40135 18.6264 
5.69057 2.84985 17.1748 
5.80289 2.75723 20.388 
9.92422 1.17343 18.7057 
8.39949 2.73529 17.2455 
11.3993 3.05252 17.3689 
8.56549 0.088027 16.9908 
11.4756 0.0639957 17.0687 
8.66281 2.80659 20.1927 
11.4842 3.06597 19.9378 
12.8407 1.49847 18.6994 
15.9141 1.48657 18.6382 
14.3483 2.95028 17.1517 
14.3023 0.0962583 17.1565 
14.3596 3.04394 19.9748 
14.301 0.193112 20.037 
18.6426 1.56908 18.7187 
17.3101 2.75414 17.1799 
20.2369 2.97472 17.2796 
17.11 2.86915 20.3144 
20.2068 3.04465 20.1053 
20.0837 0.0523544 20.0808 
21.338 1.50094 18.6802 
23.0462 2.82905 17.32 
24.3548 1.36982 18.7538 
22.911 0.10435 17.242 
22.9325 2.88044 19.9933 
27.4893 1.56362 18.5205 
26.0684 2.80086 17.2776 
25.9592 0.278122 17.2146 
25.9501 2.7587 20.0494 
1.6111 4.38764 18.8058 
1.60322 7.11688 18.6519 
3.07072 5.66674 17.4559 
0.161421 5.71969 17.2865 
3.08131 5.71594 20.286 
0.279323 5.92395 20.2128 
4.54644 4.17979 18.806 
4.31296 7.20779 18.72 
7.14231 4.36003 18.8101 
5.68824 5.66666 17.144 
7.10839 7.22369 18.5225 
5.73174 5.80505 19.8956 
9.92513 4.36137 18.5555 
8.55083 5.8706 17.196 
10.0759 7.34261 18.5004 
11.557 5.69147 17.2175 