ITEM: TIMESTEP
76000
ITEM: NUMBER OF ATOMS
2001
ITEM: BOX BOUNDS pp pp pp
0.0000000000000000e+00 2.8712000000000000e+01
0.0000000000000000e+00 2.8712000000000000e+01
0.0000000000000000e+00 2.8712000000000000e+01
ITEM: ATOMS x y z 
1.38117 1.55424 1.50843 
3.05269 3.14255 2.94481 
0.246787 2.97024 3.02875 
2.95777 0.164768 2.95283 
2.8619 0.0409919 0.0424082 
0.0569929 0.00179684 2.83977 
4.28183 1.4385 1.24799 
7.10174 1.3406 1.41433 
5.76621 2.92189 2.70894 
5.7231 0.209421 3.01648 
9.88596 1.42008 1.51096 
8.61274 2.91651 2.91032 
11.3763 2.75451 3.12977 
11.3176 0.0810873 3.05111 
8.59622 0.0870711 2.93121 
11.3538 0.0992373 0.0231343 
11.2982 2.88864 0.146799 
8.46629 2.81561 0.0394797 
12.8235 1.41715 1.47376 
15.7355 1.31491 1.44586 
14.062 2.84625 2.93116 
14.3715 0.0807581 2.9774 
14.2394 2.86825 0.167915 
18.5312 1.41015 1.30355 
16.9658 2.71574 2.94721 
19.9617 2.84753 2.95127 
17.2968 0.0549687 3.08569 
17.0113 0.0354144 0.0161509 
20.0324 0.142219 0.00477578 
23.0033 2.83029 2.88441 
24.5259 1.36645 1.41479 
21.5633 1.58709 1.42772 
22.9543 0.100347 0.0575711 
22.9475 0.0841292 2.77367 
27.308 1.34961 1.49008 
25.7461 2.82146 2.84182 
27.287 3.99506 1.55698 
1.37375 4.23802 1.45594 
1.4185 7.06862 1.46277 
2.9095 5.76997 2.78812 
0.068977 5.6227 0.0913504 
7.02374 4.22693 1.28395 
4.30837 4.4001 1.33328 
4.5826 7.2083 1.24364 
7.14714 7.1259 1.40014 
5.79006 5.60547 2.76552 
10.1094 4.40126 1.60832 
10.1276 7.13136 1.50011 
8.58576 5.86724 3.00351 
11.4486 5.71389 3.07445 
11.3929 5.66554 0.0229215 
12.6935 4.37859 1.53668 
15.458 4.23658 1.64055 
12.748 7.13975 1.53607 
15.8108 6.96468 1.52055 
14.4356 5.71186 3.12843 
14.2154 5.89606 0.165125 
18.365 4.19049 1.4256 
18.4922 7.23922 1.32727 
17.0511 5.54521 2.84901 
19.9575 5.51838 2.82157 
19.9906 5.66171 0.159251 
21.5524 4.28436 1.50849 
21.4827 7.01102 1.6057 
23.0943 5.74862 3.15585 
24.3361 7.09223 1.46873 
24.4652 4.15283 1.43795 
28.666 5.7517 2.81518 
27.3065 6.96906 1.6355 
25.9696 5.51545 3.00805 
25.9984 5.62369 0.189047 
1.4539 9.88808 1.52765 
2.91759 8.60822 2.94486 
2.63382 11.4711 3.04442 
0.0464431 11.4131 2.89493 
0.1507 8.53786 2.99549 
0.00747688 11.4644 0.053077 
3.03494 8.55064 0.275973 
2.95624 11.1793 0.0620597 
0.0582966 8.63665 0.142259 
4.39439 10.1438 1.58345 
7.25247 10.1582 1.59944 
5.76804 8.46423 2.93068 
5.86647 11.5628 3.06125 
10.0086 9.96824 1.40913 
8.61525 8.70857 3.0282 
11.4261 8.69563 2.96343 
8.61908 11.6272 2.83492 
11.5084 11.4364 2.95628 
8.76335 11.6126 0.0789466 
8.5708 8.62083 0.0266567 
11.5219 8.68338 0.0595242 
12.7774 10.0274 1.45054 
15.6589 10.2039 1.4945 
14.2408 8.48728 2.86327 
14.3864 11.6772 2.75154 
18.6049 10.0446 1.45301 
17.1515 8.8059 2.95623 
20.0623 8.52614 2.81304 
17.3051 11.6617 2.82055 
20.0532 11.4973 2.61913 
20.0763 8.41007 0.0367511 
16.9978 8.75904 0.0569918 
21.563 10.0695 1.30772 
22.7758 8.62567 2.90812 
23.0435 11.448 2.8683 
24.2631 9.99332 1.36912 
22.986 8.46124 0.0319524 
25.925 8.29646 0.149117 
27.2527 9.8726 1.31402 
25.8238 8.60561 2.8562 
25.7468 11.3681 2.72581 
25.9832 11.5465 0.0156996 
1.39185 12.7931 1.64726 
1.3846 15.6734 1.4819 
3.01021 14.3635 2.73246 
0.156367 14.4911 3.11841 
4.20787 15.7873 1.42141 
4.25018 12.7059 1.63658 
7.14682 12.9912 1.60714 
7.11282 15.8299 1.54326 
5.54425 14.464 2.86613 
10.0621 12.9213 1.62428 
9.95188 15.9786 1.46808 
8.56224 14.4227 2.88217 
11.4806 14.3755 2.60398 
12.8524 12.8672 1.33658 
15.7319 12.9948 1.21685 
12.9427 15.8407 1.28689 
15.8808 15.8924 1.51305 
14.368 14.3993 2.71615 
14.3835 14.6343 0.180227 
18.738 13.0457 1.31381 
18.8099 15.6981 1.37977 
17.2891 14.3836 2.63798 
20.132 14.3003 2.84612 
21.4847 12.9225 1.20582 
21.745 15.755 1.28996 
21.7092 15.7361 4.08107 
22.9159 14.2824 2.88603 
24.3793 15.6298 1.40417 
24.6024 12.9846 1.36675 
25.9186 14.2226 0.153687 
28.6942 14.3645 0.147276 
27.537 12.7362 1.60682 
27.2885 15.8856 1.30728 
26.0687 14.3185 2.7435 
1.4487 18.5463 1.2591 
2.84117 17.135 2.7703 
2.78761 20.0706 2.74005 
0.0127626 19.9517 2.88957 
2.84645 17.1415 0.00767191 
5.69496 17.3475 0.122671 
5.55426 20.1812 0.0781731 
4.12875 18.5576 1.40413 
7.09493 18.7025 1.55661 
5.57815 17.2606 2.83385 
5.52579 20.0471 2.82022 
9.87738 18.6637 1.51892 
8.63552 17.2902 3.06258 
11.447 17.3994 2.90789 
8.5781 20.1698 3.13325 
11.4343 20.1274 3.04514 
11.2287 20.1492 0.191198 
8.60134 17.3304 0.0890451 
11.3865 17.1487 0.0113365 
8.26488 20.2746 0.115156 
12.6044 18.786 1.53441 
15.7055 18.7332 1.5042 
14.3757 17.3469 2.97972 
14.4151 20.1818 2.93191 
14.148 17.4407 0.120717 
14.2407 20.2819 0.0600749 
18.5531 18.6116 1.39775 
17.2121 17.1645 3.08615 
20.2836 17.139 2.78259 
17.0343 19.9884 2.84241 
20.0242 20.05 2.92192 
21.5716 18.4904 1.27376 
24.3445 18.7559 1.47955 
23.1234 17.2938 2.92432 
22.7827 20.0866 2.82208 
28.6837 17.2532 3.01296 
27.1728 18.5675 1.29413 
25.7619 17.2252 2.68745 
25.8626 20.0865 2.66598 
25.7778 17.156 0.224056 
1.37292 21.5622 1.37319 
2.83657 23.1185 2.8029 
1.41926 24.3545 1.29815 
4.30432 24.3479 1.37506 
4.36515 21.6385 1.37049 
6.82183 21.508 1.45796 
5.6641 22.9113 2.92503 
7.13868 24.5536 1.44355 
5.85841 23.1108 0.0180579 
9.88466 21.6058 1.38405 
8.44099 22.9705 2.93051 
11.3792 22.9006 2.91764 
9.91514 24.5445 1.34414 
11.4033 22.8611 0.174891 
12.8156 21.5341 1.45435 
15.8504 21.4188 1.38828 
14.4953 22.8149 2.8129 
15.836 24.3676 1.4219 
13.0232 24.3565 1.6672 
14.4282 23.0049 0.0799877 
17.265 22.9825 0.0513566 
18.6079 21.4398 1.31253 
17.1968 23.0011 2.93772 
19.8649 23.0607 2.74282 
18.6667 24.4228 1.39289 
21.412 21.5327 1.64127 
24.2382 21.344 1.58582 
23.0725 23.0254 2.92102 
24.3489 24.2855 1.31954 
21.5344 24.2719 1.47821 
22.9635 22.8105 0.115067 
28.5925 22.8304 2.85739 
27.3348 21.3552 1.42774 
25.6541 22.6746 2.86794 
27.1368 24.2719 1.28882 
1.50497 27.3436 1.28279 
2.92023 25.9448 2.72372 
4.29235 27.3014 1.3136 
7.31001 27.3663 1.46898 
5.77208 25.9754 2.73189 
5.64928 28.6718 0.0380928 
10.2238 27.2718 1.52726 
8.69546 25.8751 2.94755 
11.4451 25.7968 3.04561 
11.5105 25.9267 0.0446029 
14.2579 28.6446 0.0471515 
12.9163 27.2812 1.63176 
15.8854 27.306 1.68892 
14.4041 25.8124 2.85462 
14.5473 25.9809 0.182263 
19.9798 28.657 2.72065 
18.4915 27.4172 1.36378 
17.2201 25.8338 2.7615 
20.0379 25.8564 2.67527 
20.0823 26.0831 0.103603 
21.5339 27.3546 1.37974 
22.7888 25.9105 2.73983 
24.4379 27.2419 1.311 
25.9094 28.6956 2.86653 
28.5155 25.914 2.76476 
27.3018 27.2409 1.46455 
25.8463 25.632 2.72432 
1.3965 1.34113 4.17106 
1.4421 1.47664 7.33174 
2.87213 2.89829 5.86447 
0.0698648 2.88473 5.76861 
4.24232 1.4977 4.19096 
7.25711 1.57916 4.31289 
4.16678 1.33669 7.11574 
6.93897 1.42112 7.06255 
5.66771 2.89987 5.58729 
5.70064 0.0164338 5.54869 
9.83687 1.50148 4.44243 
9.83801 1.39148 7.26152 
8.4456 2.9785 5.81231 
11.4235 2.80197 5.9779 
11.3353 0.0997708 5.65371 
8.43627 0.0741782 5.81079 
12.9135 1.39634 4.41608 
15.55 1.4328 4.44948 
12.7819 1.28008 7.31186 
15.7438 1.39807 7.005 
14.0544 2.83016 5.72405 
18.6866 1.33439 4.33482 
18.676 4.05761 4.39356 
18.5818 1.32719 7.15445 
17.101 2.79342 5.65625 
20.0701 2.77432 5.87386 
21.5982 1.3952 4.32106 
24.4714 1.32315 4.31561 
21.5478 1.44864 6.99259 
22.9701 2.81171 5.64827 
24.4323 1.52963 7.13811 
27.0908 1.59345 4.22916 
27.2455 1.36646 7.12153 
25.8288 2.87254 5.67125 
1.36591 4.50925 4.46863 
1.58541 7.06693 4.30277 
1.45873 4.3103 7.18022 
1.48201 7.13178 7.27209 
3.01508 5.98591 5.96776 
7.14799 4.21184 4.14985 
4.4021 4.57546 4.41386 
4.39047 7.27006 4.2172 
7.2185 7.19438 4.29952 
4.36437 4.36888 7.18348 
7.1208 4.3494 7.18366 
4.40227 7.22608 7.21819 
5.70992 5.97869 5.76621 
7.24336 7.19727 7.24856 
10.0269 4.17601 4.38522 
10.0831 7.14245 4.34906 
9.77529 4.31157 7.16654 
8.46514 5.91109 5.53391 
10.0066 7.05793 7.43083 
11.106 5.70224 5.91094 
12.8717 4.39236 4.547 
15.6566 4.13771 4.39302 
12.8713 7.14384 4.28723 
15.7389 7.25566 4.31222 
12.765 4.38827 7.27792 
15.7647 4.3311 7.04973 
13.0969 7.17172 7.17556 
14.4829 5.87755 5.65605 
15.7148 7.06359 7.10912 
18.6551 7.21597 4.14138 
18.5873 4.27447 7.00983 
17.3033 5.64009 5.51693 
18.633 7.02282 7.10716 
20.1622 5.70217 5.67716 
21.4414 4.20038 4.49707 
21.56 7.15303 4.29157 
24.5104 7.26146 4.22821 
21.5036 4.36215 7.23225 
24.4484 4.28073 7.07318 
21.4658 7.22242 7.03704 
22.9937 5.74978 5.56494 
24.2989 7.28111 7.03104 
24.6113 4.29458 4.4085 
27.4109 4.16334 4.30303 
27.1987 7.19459 4.18771 
27.1509 4.23308 7.0801 
28.5775 5.86608 5.85352 
25.9465 5.85073 5.86383 
27.1428 7.27038 7.35881 
1.35879 10.009 4.52563 
1.29784 9.9783 7.26884 
3.00404 8.62543 5.87493 
2.88364 11.4247 5.84936 
0.122834 11.4783 5.85484 
4.20265 10.062 4.102 
7.18274 9.89229 4.33513 
4.31869 9.99493 7.1163 
5.69343 8.60135 5.62496 
7.09096 10.0354 7.25575 
5.62168 11.6003 5.5935 
10.0177 10.155 4.3688 
8.73157 8.75633 5.82307 
10.1209 10.2369 7.07504 
11.6029 8.56793 5.81064 
8.63959 11.5176 5.81014 
11.6484 11.6491 5.69901 
12.9507 10.2006 4.38405 
15.7585 10.1312 4.16343 
12.9588 10.0208 7.08702 
14.3123 8.64473 5.79597 
15.8226 10.0262 7.0234 
14.4295 11.5831 5.71278 
18.7815 10.0159 4.1615 
20.2247 8.71409 5.83737 
17.2147 8.54192 5.55433 
18.5425 9.89478 7.0376 
17.1968 11.3995 5.67228 
20.1497 11.501 5.87389 
21.6021 10.2477 4.2022 
24.3772 9.95283 4.15028 
21.3563 10.2567 7.41638 
22.8592 8.74071 5.80033 
23.0623 11.4321 5.83389 
24.5168 10.2059 7.14822 
27.4239 10.0221 4.17511 
28.6867 8.38202 5.76597 
25.7761 8.61396 5.75264 
27.2495 9.87816 7.09637 
25.9121 11.3475 5.62482 
1.45748 12.985 4.36445 
1.45482 16.0332 4.42201 
1.50149 13.0606 7.08853 
1.53462 15.8636 7.22337 
2.81734 14.5088 5.73304 
4.21559 12.956 4.36253 
4.42477 16.0122 4.58207 
7.32217 12.8428 4.54476 
7.27124 15.8233 4.39721 
4.19775 12.9931 7.14252 
4.11677 16.0116 7.09999 
7.03235 12.8378 7.36174 
5.78586 14.3587 5.73112 
7.23753 15.7971 7.17184 
10.1891 13.0217 4.22801 
9.97828 15.697 4.29073 
10.2093 12.7933 7.26844 
8.70295 14.3107 5.87391 
10.1054 15.8428 7.19926 
11.5966 14.4149 5.65823 
12.9494 13.0085 4.17262 
15.8582 13.1049 4.22532 
12.9271 15.7221 4.10617 
15.7042 15.7667 4.2336 
13.0036 12.9038 7.23027 
15.925 12.9133 7.12716 
12.8832 15.7694 7.11452 
14.4084 14.3373 5.75768 
15.8535 15.7069 7.07048 
18.8669 12.8841 4.20787 
18.9143 15.7704 4.17533 
18.6965 12.9585 7.16614 
17.3755 14.1585 5.71559 
18.7282 16.0674 7.1459 
20.1054 14.5106 5.7583 
21.3233 12.8735 4.4992 
24.3378 12.9739 4.30499 
24.2909 15.9131 4.27026 
21.4793 13.118 7.37515 
21.5994 15.7652 7.06835 
22.9344 14.2939 5.73604 
24.3188 13.036 7.05454 
24.3481 15.7823 7.29826 
27.0603 12.8794 4.28449 
26.9497 15.9155 4.31771 
28.5122 14.3814 5.60966 
27.2391 12.8253 6.86924 
25.6213 14.3897 5.64197 
27.1303 15.9265 7.07649 
1.5399 18.8463 4.24146 
1.31155 18.6335 7.10568 
2.81782 17.4306 5.66269 
2.84309 20.3941 5.65595 
0.0521705 20.0494 5.69462 
4.28281 18.6988 4.24641 
7.14341 18.7635 4.2821 
4.23455 18.807 7.08763 
5.96939 17.3181 5.83576 
7.20664 18.716 7.17662 
5.565 20.2148 5.78382 
10.0582 18.6569 4.47537 
8.72921 17.3352 5.76059 
10.0967 18.6464 7.21456 
11.5726 17.0925 5.52328 
8.6266 20.048 5.84504 
11.4469 20.0573 5.85257 
12.9301 18.6196 4.44791 
15.7577 18.7435 4.4709 
13.0954 18.4994 7.1648 
14.3489 17.0703 5.80155 
15.7773 18.5557 7.20302 
14.3262 20.1306 5.75965 
18.609 18.6904 4.19798 
17.1452 17.1212 5.73738 
18.6848 18.3627 6.95918 
20.2858 17.211 5.51468 
17.3806 20.1394 5.72059 
20.3153 20.0017 5.72555 
21.5722 18.6098 4.34368 
24.5759 18.7994 4.4071 
21.5434 18.5703 7.22183 
22.8471 17.3391 5.74811 
22.8594 20.1086 5.86072 
24.3262 18.8232 7.33087 
27.1435 18.735 4.35083 
28.5946 17.1922 5.74506 
25.7705 17.3049 5.85929 
27.3705 18.6784 6.90421 
25.8066 20.0997 5.7324 
1.35428 21.6094 4.21678 
1.41969 24.549 4.16612 
4.05288 21.6285 4.12084 
1.39799 21.4411 7.16273 
2.96072 22.9595 5.69989 
1.55501 24.5676 7.10663 
0.186532 22.9524 5.67143 
4.33707 24.5101 4.23174 
7.00944 21.5908 4.32639 
4.3145 21.5296 7.40904 
7.33556 21.4934 7.05047 
5.64956 22.9716 5.89569 
7.13192 24.3801 7.15687 
4.28707 24.4479 7.15149 
9.95034 21.6514 4.39158 
9.95427 24.4379 4.34605 
10.0822 21.5247 7.00322 
8.50352 22.9148 5.73716 
11.5429 23.1325 5.71763 
10.034 24.4387 7.11385 
12.9116 21.5312 4.35541 
15.9762 21.4793 4.39728 
15.7345 24.3378 4.22961 
12.9627 24.3934 4.26654 
12.7967 21.484 7.09897 
15.7419 21.64 7.32022 
14.3296 22.8789 5.66709 
12.8926 24.4327 7.16479 
15.9717 24.5024 7.28326 
18.5153 21.6905 4.37466 
18.5586 24.5262 4.33579 
18.8605 21.3591 6.9816 
17.2519 23.1463 5.65141 
19.9953 22.9338 5.77834 
18.7883 24.558 7.14868 
21.648 21.7497 4.17147 
24.1253 21.4854 4.47202 
24.272 24.5896 4.14429 
21.4846 24.3698 4.25943 
21.7739 21.773 7.17412 
22.8445 23.304 5.66517 
24.3072 24.5327 6.98074 
24.2711 21.7754 7.23073 
21.4927 24.3942 7.28628 
27.1975 21.4192 4.18642 
27.3243 24.1947 4.23165 
27.219 21.5707 7.11234 
25.8966 22.9381 5.61542 
27.3596 24.2665 7.06234 
1.29893 27.215 4.16623 
2.68119 28.4604 5.8775 
1.33005 27.278 7.35659 
2.95501 25.8857 5.54227 
7.13019 24.6253 4.39593 
4.40997 27.3912 4.36165 
7.15066 27.3336 4.36845 
4.19441 27.298 7.23934 
5.64793 25.8836 5.83403 
7.03301 27.3248 7.16966 
10.0984 27.2609 4.41966 
8.45339 25.7707 5.77074 
9.88188 27.4856 7.20689 
11.4319 25.8461 5.80681 
13.0016 27.3602 4.17914 
15.6951 27.0243 4.41812 
14.3375 28.6117 5.89445 
12.8981 27.451 7.32592 
14.2777 25.9454 5.78558 
15.7681 27.307 7.09311 
18.657 27.1554 4.21027 
20.2383 28.527 5.6184 
17.1223 28.6289 5.58213 
17.2562 25.8116 5.78756 
18.7049 27.3818 7.17946 
20.2091 25.8541 5.73078 
21.6686 27.3414 4.17509 
24.5291 27.3141 4.10633 
23.2474 28.6305 5.75609 
21.3651 27.4109 7.16208 
22.8259 25.9331 5.71119 
24.4072 27.2186 7.06287 
27.3141 27.39 4.25934 
25.9858 28.6203 5.69228 
28.6945 28.6763 5.83238 
28.6909 25.8589 5.67535 
25.9148 25.6657 5.53524 
27.143 27.0684 7.10816 
2.94336 2.82372 8.82685 
2.73885 0.0835532 8.79121 
0.0173927 0.0624562 8.62127 
1.32346 1.50071 10.1823 
2.79745 2.85434 11.483 
2.80087 0.0190787 11.4889 
5.6197 2.90259 8.59458 
5.57329 0.0844809 8.62756 
4.24195 1.31738 10.2343 
6.86601 1.61208 10.1507 
5.65976 2.99551 11.3717 
8.45853 2.94005 8.53049 
11.4737 2.79122 8.62189 
8.47468 0.0686248 8.55503 
11.3453 0.0161465 8.81333 
9.78035 1.42157 10.0748 
8.49025 2.8886 11.542 
11.5125 2.99913 11.4051 
11.3896 0.190168 11.3688 
14.388 2.91205 8.47587 
14.3329 0.0794487 8.75204 
14.3875 0.212945 11.3358 
12.8375 1.48361 10.0138 
15.7971 1.57053 9.93529 
14.4334 2.91308 11.3349 
17.0967 2.81609 8.4021 
20.3091 2.84342 8.57731 
19.9665 0.127112 8.62966 
17.0862 0.200327 11.382 
18.6621 1.49594 10.006 
17.2288 2.91565 11.3669 
20.1679 2.98709 11.2292 
23.1569 2.75671 8.57932 
23.0352 0.0202 8.58828 
23.1353 0.00488741 11.5733 
21.6555 1.55769 9.82056 
23.1811 2.73156 11.3189 
28.6451 2.75025 8.42794 
26.0473 2.9154 8.54155 
28.6321 0.0194764 11.6388 
28.6943 2.80281 11.4755 
24.6578 1.35534 9.86794 
27.2351 1.4985 10.0462 
25.9193 2.88905 11.4724 
2.91364 5.58569 8.62288 
0.00598916 5.71213 8.64286 
1.47416 4.4046 10.0111 
1.52326 7.40363 10.0722 
2.808 5.77431 11.4127 
0.0433213 5.66982 11.3314 
5.76148 5.639 8.76017 
4.37537 4.34345 10.0535 
4.38014 7.25932 10.0497 
7.17391 4.37483 10.1586 
6.98502 7.22357 10.0734 
5.61619 5.83294 11.5295 
8.51575 5.83492 8.67859 
11.5876 5.62215 8.7271 
10.0026 4.25691 10.1019 
10.0851 7.15889 10.2989 
8.54405 5.86144 11.4405 
11.5408 5.80182 11.5005 
14.2553 5.57483 8.5648 
13.0994 4.25779 10.0782 
15.9465 4.35855 9.82661 
13.0498 7.10312 9.83669 
15.7325 7.19195 10.0468 
14.4442 5.69175 11.2563 
17.2637 5.76963 8.52056 
20.1807 5.77456 8.51689 
18.5809 4.18963 9.94157 
18.7339 7.2686 9.78955 
17.3285 5.67852 11.2807 
20.1497 5.74039 11.3201 
23.0927 5.53647 8.29682 
21.6069 4.22611 9.88887 
21.6232 7.08141 9.94811 
22.9896 5.60785 11.3303 
24.5003 4.18905 9.85262 
24.2915 7.23938 10 
25.7394 5.65642 8.63456 
27.3303 4.25331 10.0904 
27.3282 7.07012 10.0402 
25.8695 5.67357 11.5142 
2.97587 8.78003 8.48023 
2.6672 11.604 8.54753 
0.0384351 8.65493 8.65543 
1.53299 10.0156 10.0673 
2.97224 8.57852 11.6464 
2.70758 11.3878 11.4232 
0.0690497 11.5094 11.2521 
5.91792 8.71372 8.54606 
5.47668 11.5298 8.56897 
4.18412 10.1689 9.96863 
7.17479 10.0442 10.1436 
5.6882 8.5743 11.5441 
5.62049 11.4908 11.2265 
8.60916 8.60262 8.68468 
11.5219 8.72759 8.72968 
8.64342 11.5154 8.72994 
11.5028 11.3475 8.56515 
11.5764 8.43089 11.5034 
10.0081 9.90095 10.1117 
8.49164 8.58035 11.5011 
8.73707 11.5004 11.4032 
11.5421 11.505 11.4848 
14.3755 8.6642 8.57945 
14.3295 11.3479 8.65141 
12.9498 9.97094 10.1315 
15.8011 10.0172 10.0066 
14.4177 8.62249 11.5956 
14.4065 11.5945 11.4076 
17.161 8.58249 8.56508 
19.9785 8.62212 8.52573 
17.1487 11.4582 8.46733 
19.8834 11.4815 8.64412 
18.5609 9.97277 9.92152 
17.2696 8.50251 11.3666 
20.0992 8.55526 11.5358 
17.334 11.4807 11.3589 
20.0601 11.3734 11.5958 
22.8229 8.79123 8.61261 
23.1686 11.6624 8.48822 
21.4829 9.97992 10.2994 
23.0916 8.37256 11.5979 
22.8986 11.6022 11.5155 
24.3591 10.1585 9.9798 
28.6041 11.5521 8.41785 
25.673 8.65146 8.60102 
25.9027 11.4361 8.56958 
28.6689 8.64931 11.6833 
27.2939 10.0635 9.90391 
25.7577 8.44149 11.2934 
25.9209 11.4185 11.3974 
2.96944 14.4429 8.59457 
0.156809 14.3087 8.48649 
1.40291 12.9199 9.87893 
1.37294 15.9344 9.97581 
2.5456 14.2188 11.3609 
4.05605 12.9532 9.91527 
5.60113 14.4253 8.49424 
4.21473 15.8045 10.1287 
7.12377 12.846 10.1361 
7.11066 15.7639 9.96211 
5.62178 14.3958 11.4978 
8.48972 14.3068 8.54599 
11.4729 14.2764 8.52625 
10.0352 12.9497 9.94389 
10.1861 15.8304 9.9788 
8.64584 14.4066 11.4235 
11.5048 14.4459 11.4062 
14.4094 14.2486 8.63479 
12.9374 12.8937 10.1779 
15.9745 12.8013 9.97612 
13.0166 15.7131 9.82695 
15.898 15.6757 10.0489 
14.3378 14.461 11.4248 
17.3487 14.4842 8.61502 
19.9179 14.3209 8.65417 
18.7413 12.8806 9.98545 
18.6832 15.9944 10.0908 
17.3709 14.3985 11.5213 
20.2675 14.5279 11.542 
22.9298 14.327 8.69012 
21.5064 13.0786 10.1271 
21.6179 15.9474 10.1435 
23.0531 14.5641 11.1835 
24.6035 15.9735 9.97559 
24.4081 12.9586 9.99048 
25.7934 14.1987 8.44121 
28.6671 14.383 11.2903 
27.2944 12.95 10.0146 
27.1788 15.8388 9.88333 
25.8739 14.261 11.3862 
2.85717 17.3601 8.61897 
2.79132 19.886 8.62163 
0.050373 17.2412 8.47013 
1.21184 18.7069 10.0195 
2.81941 17.2978 11.5964 
2.87531 20.1266 11.6039 
0.165517 20.4172 11.3809 
0.0040946 17.193 11.4499 
5.86214 17.1797 8.52695 
5.57887 20.0148 8.73269 
4.13182 18.6619 10.2067 
7.20446 18.8121 10.0163 
5.84098 17.2731 11.4554 
5.71876 20.0526 11.5798 
8.77821 17.2718 8.58156 
11.5328 17.3858 8.54182 
8.76442 20.1666 8.59103 
11.6007 20.0746 8.55853 
10.1118 18.4304 10.1085 
8.54396 17.2797 11.4453 
11.6296 17.2686 11.4668 
8.73038 20.1871 11.5533 
11.6706 20.0213 11.3256 
14.3676 17.1334 8.43296 
14.3814 20.166 8.56572 
13.0854 18.5469 9.92726 
15.602 18.7064 9.9813 
14.343 17.2073 11.4206 
14.3761 20.0253 11.4595 
17.0733 17.2631 8.71177 
20.129 17.2139 8.60545 
17.3848 20.0137 8.5554 
20.26 20.1404 8.6161 
18.8666 18.6999 9.91584 
17.2008 17.3627 11.3702 
20.2635 17.3495 11.545 
17.4058 20.2291 11.3714 
20.3256 20.0906 11.4631 
23.1173 17.1725 8.5989 
22.9027 20.1799 8.77441 
21.6638 18.7116 9.99103 
23.0391 17.3362 11.6077 
23.1912 20.197 11.7189 
24.183 18.7032 10.1217 
28.6382 20.1554 8.56656 
25.8455 17.5364 8.5372 
25.8664 20.2669 8.50672 
27.3611 18.7235 10.0174 
25.8627 17.3687 11.3065 
26.0915 20.0554 11.5024 
3.04281 23.2631 8.54491 
0.316601 23.0669 8.49572 
1.54654 24.4565 10.0613 
1.78082 21.6413 9.99588 
2.9183 22.8286 11.4694 
5.61775 23.1076 8.50742 
7.07983 24.4492 10.075 
4.15307 24.2843 10.0953 
4.41847 21.3594 10.2696 
7.12791 21.5563 10.0281 
5.7172 22.9978 11.4479 
8.69526 23.0072 8.49858 
11.3964 22.9868 8.33155 
9.92281 24.2852 10.029 
10.1679 21.5976 10.1023 
8.43879 23.0963 11.5422 
11.5661 22.9265 11.6566 
14.2771 22.9783 8.54521 
16.2831 24.002 9.69948 
12.3556 24.1972 9.80282 
14.4668 22.8401 11.427 
16.0045 21.5705 9.91041 
12.7583 21.5871 9.97037 
17.7638 22.7805 8.33978 
20.3211 22.966 8.68536 
18.7119 24.3783 9.91859 
19.0054 21.6262 9.95576 
20.1266 22.9983 11.3608 
17.3237 22.9133 11.4278 
23.1634 23.2358 8.65205 
21.6562 24.4788 9.97027 
21.8483 21.6654 10.1381 
24.5372 21.5595 10.1296 
23.1416 22.9212 11.6233 
24.4793 24.4395 10.1921 
25.8328 22.9652 8.66595 
27.3488 24.5245 9.93039 
27.3939 21.7789 10.0039 
25.9597 22.9257 11.7066 
28.6512 23.0279 11.4814 
2.95893 25.8521 8.65764 
0.0699988 25.7989 8.50284 
2.87314 25.8352 11.5865 
1.47123 27.2296 10.2336 
5.65995 25.7655 8.67941 
7.11739 27.3962 10.0821 
4.48876 27.2263 10.1634 
5.80634 25.6694 11.4591 
5.73847 28.6915 11.4991 
8.64739 25.8723 8.61205 
11.4836 26.0443 8.46261 
9.81076 27.4423 10.1232 
8.47869 25.8223 11.4059 
11.4599 25.6312 11.3399 
8.50558 28.6842 11.5493 
14.2305 25.8599 8.7028 
12.8908 27.1664 10.182 
15.7066 27.2667 9.99965 
14.3802 26.5866 11.9974 
14.3869 24.9226 10.6483 
17.2311 28.5667 8.61607 
17.3658 25.9348 8.82691 
20.0934 26.0359 8.67087 
20.0675 25.7762 11.4207 
18.6544 27.3561 10.1115 
17.3015 25.6799 11.5487 
20.1765 28.6784 11.3679 
22.9422 25.8684 8.52032 
24.4536 27.1862 10.0332 
22.8628 25.8438 11.6245 
21.5825 27.31 10.0524 
25.9777 28.6961 8.60089 
25.8412 25.6688 8.6106 
25.7906 25.821 11.5739 
27.0557 27.2515 10.0562 
25.7676 28.7024 11.4365 
28.6468 25.9391 11.4757 
1.41622 1.48318 12.9295 
2.89933 0.0666402 14.2821 
1.26953 1.56506 15.8734 
0.0940413 3.00451 14.5136 
0.0168584 0.000411622 14.4744 
2.78147 2.96218 14.4909 
4.23949 1.66841 13.0375 
7.05429 1.60993 13.0076 
5.6785 2.92743 14.2755 
4.3277 1.63943 15.7957 
7.0826 1.50332 15.8062 
5.8312 0.197058 14.359 
10.0287 1.40986 12.6293 
8.38698 2.88846 14.2891 
11.3353 0.276128 14.1537 
10.027 1.5909 15.7552 
11.4704 2.95614 14.4411 
12.944 1.49868 12.8591 
15.7191 1.40287 13.0075 
12.9865 1.48086 15.8296 
15.7584 1.30595 15.8453 
14.4073 2.88009 14.45 
18.7221 1.38575 13.0073 
20.2335 2.99674 14.0722 
17.1959 2.8581 14.3169 
18.5938 1.50249 15.7482 
17.2732 0.0264532 14.3595 
21.6525 1.47692 12.7173 
24.5919 1.63922 12.9491 
22.9727 2.9592 14.326 
21.3706 1.42538 15.7676 
24.3352 1.4158 15.7072 
22.8621 0.0175218 14.3895 
27.3909 1.42935 12.9908 
27.2568 4.05271 13.0218 
26.0295 0.0448405 14.3168 
27.342 1.42961 15.8553 
26.1653 2.81166 14.5216 
1.44043 4.33636 12.7738 
1.37663 7.28264 12.906 
0.190267 5.73219 14.218 
2.80868 5.76006 14.281 
1.454 4.45479 15.8501 
1.49764 7.39412 15.7459 
7.13604 4.52984 12.9553 
4.25546 4.36617 12.9242 
4.24381 7.12479 12.8834 
7.10329 7.17898 12.8416 
4.32769 7.1865 15.6702 
4.3329 4.59433 15.7762 
7.09643 4.42468 15.8917 
7.32174 7.19119 15.8708 
5.79486 5.83173 14.4133 
10.1714 4.4077 12.9875 
9.92473 7.1874 12.973 
9.90493 4.365 15.9384 
10.0464 7.24608 15.8299 
11.6221 5.79041 14.7347 
8.60909 5.77846 14.4259 
12.9726 4.23503 12.9724 
15.9165 4.35188 12.8751 
13.0805 7.14344 12.9023 
15.7585 7.0918 12.8798 
14.376 5.72141 14.2145 
15.9405 4.43071 15.8917 
12.9824 4.2217 15.6714 
13.17 7.45511 15.99 
15.9679 7.2603 15.5743 
18.6247 4.30272 12.8225 
18.6635 7.14737 12.9205 
20.1684 5.78267 14.2241 
17.3703 5.73576 14.3213 
18.4902 4.31902 15.6935 
18.6116 7.38029 15.8202 
21.6052 4.37359 12.7974 
21.722 7.17461 13.0471 
24.5665 7.04891 12.9964 
22.9837 5.75617 14.4847 
21.3454 4.32594 15.864 
21.4964 7.16142 15.8535 
24.468 7.03585 15.8606 
24.2101 4.35326 15.7898 
24.6441 4.33687 12.952 
27.1608 7.15951 12.8464 
27.2914 4.30785 16.0685 
27.3014 7.15878 15.8771 
25.9513 5.49645 14.4392 
1.44947 10.0136 12.9994 
0.249328 11.426 14.3061 
2.7689 11.5101 14.1834 
1.60153 9.96001 15.6926 
3.12025 8.85399 14.3995 
0.07332 8.69143 14.5442 
4.21694 10.3036 12.8019 
7.02899 10.0378 12.6289 
5.55878 11.6893 14.1996 
5.67437 8.66508 14.2421 
4.277 10.2532 15.8376 
7.04124 10.2268 15.5562 
10.0875 10.0385 12.8628 
11.6031 11.5923 14.1626 
8.64427 11.4956 14.2389 
8.554 8.63236 14.2835 
10.2575 10.1052 15.7218 
11.6637 8.59367 14.3664 
12.9052 10.0863 12.7898 
15.7444 10.1882 12.8241 
14.4627 8.63467 14.2216 
14.3626 11.6334 14.1767 
12.7803 10.2162 15.6503 
15.6723 10.107 15.6566 
18.6669 10.0495 13.0493 
20.2056 8.556 14.3294 
17.3532 8.54827 14.2572 
20.2968 11.5386 14.2243 
17.2531 11.5888 14.2658 
18.741 10.2043 15.5772 
21.6559 10.1117 13.1225 
24.4227 10.0452 12.7868 
22.9961 11.4913 14.1928 
23.0854 8.5956 14.3047 
21.9865 10.1424 15.6893 
24.4045 10.017 15.5583 
27.3471 10.2696 12.7491 
25.7882 11.4127 14.1992 
26.0055 8.61761 14.3413 
27.2761 10.0622 15.7955 
1.49279 12.9894 12.9463 
1.39867 15.8285 12.8851 
2.8851 14.4234 14.1637 
0.00269255 14.3553 14.2499 
1.45756 12.9117 15.6513 
1.31451 15.6265 15.6872 
4.42553 15.8503 12.9615 
4.25442 12.9095 12.7189 
7.16206 12.8121 12.8328 
7.18633 15.7371 12.877 
5.72301 14.2565 14.1418 
4.28295 15.884 15.7765 
4.30165 12.9892 15.6586 
7.46741 13.0512 15.7362 
7.19383 15.748 15.5446 
10.0159 12.8042 12.6791 
10.1112 15.9328 12.8628 
8.77593 14.2864 14.1656 
11.2363 14.2848 14.3003 
10.1065 12.9473 15.8548 
9.95366 15.8799 15.7704 
12.9526 13.1693 12.8403 
15.8996 13.0071 12.6924 
13.0033 15.6324 12.9509 
15.8812 15.9596 12.8227 
14.7243 14.4793 14.285 
12.9336 12.9876 15.5845 
15.7127 13.0719 15.7745 
12.9204 15.7198 15.8385 
16.0535 15.886 15.6299 
18.8025 13.0209 12.942 
18.6183 15.9292 12.7957 
17.4669 14.3772 14.2934 
20.4894 14.554 14.2347 
18.8242 13.0492 15.7757 
18.9316 15.8499 15.8555 
21.5792 13.0585 12.7489 
21.6991 15.9941 12.9534 
24.5191 15.7865 12.8122 
23.0747 14.2996 13.9261 
21.5364 13.0245 15.6465 
21.6279 15.8917 15.8525 
24.3809 13.0105 15.7074 
24.525 15.7705 15.6671 
24.6555 12.9078 12.8723 
27.5365 12.8697 12.8504 
27.2916 15.7794 12.6648 
25.9581 14.2962 14.1873 
27.3991 12.825 15.5644 
27.201 15.7622 15.631 
1.29792 18.7561 12.8727 
2.82982 17.1161 14.2918 
1.45422 18.7262 15.7505 
2.85893 20.2054 14.3689 
4.32939 18.5722 12.9816 
7.27444 18.5707 13.0368 
4.37597 18.6489 15.7239 
7.26357 18.6397 15.8192 
5.76776 17.4468 14.4033 
5.8937 20.0091 14.4425 
10.1717 18.678 12.9148 
11.4616 20.1527 14.3078 
8.70342 17.2304 14.325 
11.5695 17.2942 14.4498 
10.1377 18.6056 15.7373 
8.67183 20.1686 14.486 
13.0575 18.5991 12.8478 
15.897 18.6827 12.8221 
14.2988 17.125 14.1445 
12.9055 18.5876 15.6734 
16.0235 18.6876 15.6963 
14.4413 19.9987 14.4358 
18.7886 18.836 12.8621 
20.2945 17.3623 14.2856 
18.9738 18.8343 15.9424 
17.5739 17.3403 14.4657 
20.2185 20.1826 14.4242 
17.5409 20.1628 14.3841 
21.6979 18.7727 12.93 
24.5618 18.7653 13.051 
23.0289 17.1341 14.2418 
21.7507 18.6484 15.8126 
24.3641 18.6948 15.8388 
23.0892 20.1811 14.4901 
26.0026 17.2224 14.2057 
28.7092 17.1802 14.2258 
27.3388 18.6882 12.9882 
25.8321 20.0551 14.4923 
27.1999 18.5711 15.7137 
28.6443 20.0007 14.5222 
1.34247 24.4934 12.889 
1.32911 21.5388 12.8989 
2.73602 22.925 14.2596 
0.00228231 22.9665 14.3019 
1.42424 21.566 15.8172 
1.36565 24.4832 15.7727 
4.33973 21.5071 13.0397 
4.24402 24.4157 12.9085 
7.21274 21.4973 12.8292 
6.99414 24.356 13.1003 
5.69682 22.8657 14.2873 
4.33815 21.5032 15.7541 
7.0473 21.4371 15.7915 
4.29948 24.4461 15.8177 
9.99829 24.3107 12.8831 
10.2066 21.6123 12.7653 
11.3753 23.0099 14.3437 
10.1843 21.5912 15.7416 
10.0336 24.4752 15.6545 
8.58189 23.0219 14.5357 
14.6052 22.928 14.1414 
12.9411 24.3568 12.8121 
13.0888 21.542 12.9063 
15.9846 21.3897 12.9131 
15.8601 24.3899 12.7484 
13.0561 21.4759 15.6493 
15.9601 21.3655 15.8454 
12.9842 24.446 15.7124 
15.8207 24.3859 15.688 
20.1871 22.9257 14.2476 
18.9073 24.4694 12.7634 
18.8777 21.5189 12.9464 
18.7973 21.5329 15.9777 
18.9133 24.4322 15.7635 
17.4398 22.6997 14.3661 
23.177 22.9334 14.3352 
24.5006 21.4733 13.0018 
21.7428 24.3532 12.8655 
21.6086 21.5883 12.8961 
24.3492 24.3365 13.0239 
21.7012 21.5134 15.6717 
24.4909 21.6816 15.6838 
24.3735 24.3517 15.8427 
21.7351 24.3528 15.7608 
27.2715 21.6551 13.0403 
27.317 24.4615 13.0737 
27.3283 21.5317 15.8547 
27.2094 24.3357 15.9792 
25.9239 23.1519 14.5323 
1.44642 27.246 12.901 
1.55043 27.383 15.8524 
2.95069 25.6269 14.436 
7.04612 27.2192 12.9586 
4.44168 27.458 12.8778 
5.5826 25.9512 14.2564 
7.06676 24.6137 15.7004 
4.3493 27.4177 15.7135 
7.12158 27.4053 15.7063 
9.93818 27.2473 12.9495 
8.46267 25.7819 14.2704 
11.4838 25.8963 14.1923 
8.46457 28.6869 14.3591 
10.042 27.202 15.8931 
12.352 27.4527 12.7493 
16.2182 27.2614 13.1611 
14.1755 28.611 14.0555 
14.1105 25.7766 14.0457 
12.7996 27.1301 15.4868 
15.7274 27.1588 15.8419 
18.8886 27.3096 12.9044 
20.3448 25.8915 14.1832 
17.3325 25.4831 14.1575 
18.5467 27.026 15.5437 
20.295 28.6764 14.3628 
21.4 27.341 12.7536 
24.352 27.4084 13.0225 
21.6748 27.2414 15.658 
24.5026 27.4492 15.7678 
22.9327 25.9699 14.4426 
27.2934 27.331 12.8725 
28.7104 26.0792 14.5634 
27.3256 27.3976 15.8485 
25.9465 25.8751 14.5598 
1.51035 1.2629 18.7591 
2.80091 2.88831 17.353 
0.0676126 2.9582 17.4479 
0.154139 0.0420051 17.3409 
2.81427 2.95426 20.1496 
0.164443 2.85526 20.0276 
2.7734 0.0393532 20.2609 
4.25472 1.47475 18.9075 
7.04706 1.43481 18.681 
5.72474 2.9683 17.2693 
5.59381 0.00469256 17.1939 
5.60032 2.94867 19.9853 
5.48735 0.078082 20.1603 
9.98215 1.38128 18.4431 
8.47427 2.66432 17.304 
11.4807 2.68642 17.314 
8.7102 0.163478 17.1245 
8.69369 2.91213 19.9871 
11.451 2.80809 20.1557 
11.6614 0.0169442 20.3638 
8.65151 0.044138 19.9831 
12.7947 1.34843 18.6735 
15.9212 1.28999 18.533 
14.4399 2.87308 17.1583 
14.4899 2.81577 19.7986 
14.4532 0.163302 19.9297 
18.5141 1.5511 18.5669 
16.9894 2.91817 17.184 
19.989 2.88909 17.1778 
17.2213 2.93394 20.0788 
20.0811 2.99479 20.005 
20.0747 0.0235029 20.1013 
21.3945 1.50267 18.6057 
22.8937 2.82647 17.1955 
24.2281 1.46493 18.6289 
23.0474 0.085565 17.1124 
22.8328 2.74578 20.2508 
22.8325 0.0784546 19.9883 
27.3428 1.44644 18.6823 
25.7081 2.917 17.3726 
26.0299 0.243559 17.2967 
25.7737 2.59965 20.1031 
25.9228 0.0523207 20.2302 
1.52002 4.45422 18.6854 
1.41789 7.27313 18.6953 
2.86333 5.79441 17.1462 
0.141353 5.94841 17.3259 