ITEM: TIMESTEP
77000
ITEM: NUMBER OF ATOMS
2001
ITEM: BOX BOUNDS pp pp pp
0.0000000000000000e+00 2.8712000000000000e+01
0.0000000000000000e+00 2.8712000000000000e+01
0.0000000000000000e+00 2.8712000000000000e+01
ITEM: ATOMS x y z 
1.43933 1.52631 1.57722 
2.75249 3.02678 2.78724 
2.6451 0.16743 2.96474 
2.88054 0.0844033 0.0759064 
2.65636 2.97164 0.135302 
0.0112056 0.0327312 0.173875 
4.31254 1.64549 1.62279 
7.10641 1.53558 1.44924 
5.80687 3.0009 2.88223 
5.76697 0.104384 2.98579 
5.59177 0.0699164 0.0411337 
5.64496 2.92884 0.0733064 
10.122 1.25794 1.55427 
8.6871 2.76677 2.7157 
11.5641 2.73576 2.95531 
11.4399 0.095962 2.81851 
8.53519 0.214428 2.85517 
12.7967 1.25844 1.3652 
15.7324 1.31604 1.2748 
14.2102 2.78505 2.58388 
14.2435 0.099635 2.815 
18.7289 1.509 1.37389 
17.2771 2.89052 2.88578 
20.1701 2.72757 2.72711 
17.2806 0.00592907 2.84557 
20.174 0.286736 2.69817 
17.2501 0.0838039 0.0463315 
22.9531 2.87841 2.85055 
24.5318 1.52421 1.49944 
21.6279 1.40427 1.27002 
22.8646 0.147381 2.88216 
22.9993 2.9767 0.000914482 
28.6464 2.95729 3.06743 
28.6013 0.091554 2.93389 
27.2283 1.38307 1.55606 
25.816 3.06591 2.91893 
28.6632 2.85419 0.130347 
1.28838 4.31644 1.44532 
1.50488 7.15976 1.34407 
2.84125 5.83034 2.76544 
7.24724 4.31967 1.39292 
4.28261 4.40612 1.38249 
4.34719 7.1364 1.43948 
7.22521 7.15 1.55559 
5.75253 5.73351 2.95439 
9.97271 4.22257 1.24129 
10.2895 7.139 1.50213 
8.62049 5.7616 2.89593 
11.5563 5.56106 3.04578 
13.0365 4.24347 1.21112 
15.7561 4.1762 1.26563 
12.8205 7.14325 1.38768 
15.9587 7.21005 1.5011 
14.2381 5.72517 2.58039 
18.5729 4.34609 1.44433 
18.6097 7.11848 1.60669 
17.1142 5.68875 2.8026 
20.0622 5.66332 2.89612 
20.2584 5.75035 0.00459852 
21.3775 4.20569 1.4527 
21.5395 7.26745 1.49569 
22.9842 5.81303 2.98253 
24.5187 7.20662 1.44104 
24.3282 4.43713 1.30747 
24.4901 4.27119 4.08162 
27.358 4.23509 1.42298 
28.5691 5.89101 2.70192 
27.2386 7.29257 1.26756 
25.7692 5.85786 2.77985 
25.8389 5.65078 0.0162878 
1.31839 10.0987 1.11776 
2.77057 8.64118 2.86097 
2.75324 11.45 2.6876 
0.0235493 8.52989 2.81835 
4.16441 9.9826 1.20128 
7.04531 10.1727 1.221 
5.61105 8.61192 2.65291 
5.95257 11.3472 2.87196 
9.94933 10.1567 1.50905 
8.56739 8.61497 2.83672 
11.438 8.50911 2.95044 
8.6546 11.5717 2.93673 
11.5814 11.4515 2.99016 
12.767 10.1275 1.54204 
15.8132 10.1671 1.48583 
14.1058 8.75839 2.73503 
14.1232 11.5695 2.8018 
14.2172 11.5433 0.156827 
14.2392 8.61227 0.0548588 
18.702 10.1602 1.48245 
17.2323 8.74823 2.81799 
20.1088 8.60912 2.93872 
17.2614 11.5841 2.88547 
20.0261 11.5253 2.79727 
19.9293 8.46449 0.133166 
20.1123 11.5443 0.0750667 
17.2268 11.3107 0.0188632 
17.3691 8.57229 0.190971 
21.6354 9.9974 1.49223 
22.7921 8.62592 2.91073 
23.0356 11.3666 2.8714 
23.0477 8.65254 0.0166734 
23.1211 11.433 0.122755 
28.6448 11.3485 2.75598 
24.645 9.90273 1.37261 
27.2292 10.1536 1.14467 
25.905 8.70738 2.89614 
25.7394 11.5327 2.98979 
1.43751 12.9085 1.26765 
1.42173 15.7707 1.33711 
1.33014 12.6769 4.09224 
2.89414 14.1023 2.75735 
0.183608 14.3654 2.84196 
4.39887 15.7507 1.47637 
4.35894 12.8214 1.42414 
7.19059 12.8129 1.40867 
7.07057 15.6592 1.37089 
5.78647 14.376 2.88974 
9.98505 12.9098 1.24794 
9.88108 15.789 1.47231 
8.39262 14.3519 2.82738 
11.4127 14.3788 2.8444 
11.5687 14.401 0.0375183 
12.8098 12.9629 1.38985 
15.8434 12.9427 1.56821 
13.0364 15.9107 1.28401 
15.9632 15.8222 1.76207 
14.3553 14.2515 2.8044 
18.5722 12.964 1.36791 
18.7863 15.9017 1.45633 
17.3589 14.4099 2.7612 
20.1994 14.3699 3.01689 
17.1927 14.3781 0.0137541 
23.0392 14.3127 0.0693784 
21.6724 13.0079 1.40348 
21.5499 15.8137 1.32035 
23.0723 14.3281 2.90212 
24.5965 15.887 1.53627 
24.3939 12.9403 1.31698 
27.2194 12.9136 1.36155 
27.3449 15.7586 1.41346 
25.9531 14.2484 2.80284 
1.57936 18.6681 1.3954 
3.06328 17.1383 2.7348 
2.90162 20.1086 2.8172 
0.00647125 20.1551 3.04101 
0.0989077 17.4461 2.94096 
2.91355 20.2375 0.16526 
2.9733 17.1909 0.0134205 
0.257932 19.9757 0.107947 
5.75351 17.2736 0.110131 
4.31391 18.7342 1.42006 
7.20705 18.7479 1.5179 
5.8961 17.3325 2.71898 
5.6642 20.2044 2.86465 
10.1675 18.8075 1.32068 
8.57554 17.2415 2.63575 
10.0316 18.573 4.06871 
11.4056 17.2337 2.89187 
8.70226 20.1143 2.86354 
11.5469 20.1018 2.97041 
8.70233 17.2372 0.0314314 
11.4544 17.0889 0.0178649 
13.028 18.6762 1.55175 
15.7062 18.7931 1.47113 
14.5081 17.2454 2.87946 
14.362 20.1977 2.98348 
14.2902 19.9574 0.0251846 
14.398 17.0957 0.0240857 
17.0559 17.4174 0.094906 
18.7312 18.773 1.41958 
17.2698 17.3184 2.83441 
20.1124 17.3144 2.87736 
17.119 20.1102 2.86158 
20.1382 20.1141 2.74257 
20.1892 19.9703 0.0321182 
20.2619 17.235 0.0381795 
21.5628 18.6631 1.63767 
24.5905 18.8457 1.47796 
23.0209 17.1572 2.82827 
23.0068 20.1093 2.86331 
23.1117 20.1514 0.196407 
23.0237 17.2983 0.177295 
28.6713 17.341 0.06605 
27.4458 18.9415 1.57447 
25.9153 17.0384 2.86935 
25.9785 20.059 2.92085 
25.7438 17.284 0.0544573 
0.168635 23.1132 0.0431851 
1.4089 21.6519 1.68157 
2.83621 22.975 2.89114 
1.43267 24.4262 1.53873 
0.0493888 23.1134 3.06623 
2.76132 22.9135 0.270655 
4.34398 24.4491 1.56878 
4.29405 21.5867 1.39417 
7.17817 21.4133 1.63046 
6.02013 23.1896 2.83395 
7.12204 24.3959 1.42912 
10.1046 21.4732 1.50507 
8.70752 22.8172 3.09652 
11.4553 22.8795 2.8522 
9.99402 24.3248 1.331 
11.2396 22.9198 0.168724 
8.4157 22.9051 0.111366 
12.893 21.5783 1.36148 
15.7469 21.4555 1.64471 
14.1869 22.8499 2.83168 
15.6192 24.4119 1.43445 
12.8262 24.4202 1.37482 
18.6761 21.4716 1.31891 
17.346 22.8526 2.75769 
20.0378 22.9486 2.89605 
18.685 24.4013 1.3936 
17.1565 22.9676 0.00793938 
21.5738 21.5439 1.30902 
24.3513 21.7177 1.52784 
21.5664 21.6909 4.08811 
22.8343 23.068 2.88574 
24.2252 24.3523 1.49316 
21.4143 24.3605 1.30776 
21.4016 24.4654 4.03044 
22.9791 23.088 0.102591 
25.8488 23.0127 0.220206 
27.4869 21.618 1.5176 
25.9238 23.025 2.9941 
27.4304 24.3383 1.51129 
2.86048 25.869 0.171866 
1.38231 27.2839 1.49034 
2.68489 25.9708 3.06177 
0.0278113 25.8654 2.96214 
4.21758 27.4937 1.71698 
7.17638 27.3749 1.48837 
5.77131 25.8963 2.92854 
5.7808 25.8012 0.241007 
9.76727 27.4137 1.36509 
8.64977 25.8445 2.68591 
11.3887 25.837 2.67342 
12.8508 27.2288 1.49346 
15.8722 27.2959 1.46226 
14.4569 25.8072 2.76648 
18.7233 27.3716 1.45649 
17.2469 25.9268 2.90118 
20.111 26.0465 2.90415 
17.1642 25.8574 0.127394 
20.1378 25.9562 0.130456 
21.5272 27.3514 1.46329 
23.0795 25.8121 2.83283 
24.4567 27.3045 1.39731 
23.0597 25.8129 0.016115 
25.8542 28.7055 3.02005 
27.0696 27.2701 1.48841 
25.935 25.8157 3.04243 
25.8198 25.6866 0.237867 
28.6857 25.9315 0.0469587 
1.26892 1.28615 4.50579 
1.59755 1.45359 7.20616 
2.8686 2.94852 5.57901 
0.00822096 2.95035 5.78984 
2.8245 0.183227 5.76225 
0.00832594 0.0787394 5.88899 
4.22327 1.38867 4.22058 
7.19233 1.48289 4.48859 
4.28527 1.41257 7.16769 
7.12443 1.54013 7.26135 
5.75714 2.87129 5.7168 
5.83481 0.0755032 5.72227 
10.0312 1.40785 4.31452 
10.1002 1.38285 7.12318 
8.54843 2.85144 5.7759 
11.4247 2.80257 5.7365 
8.49034 0.0659773 5.85414 
12.9087 1.39996 4.2043 
15.771 1.38085 4.26357 
13.0016 1.61338 6.93834 
15.8278 1.55867 7.16532 
14.3556 2.91713 5.61662 
18.758 1.40015 4.35006 
18.7728 1.3495 7.12511 
17.1316 2.93061 5.6345 
20.1551 2.7601 5.56827 
17.1114 0.00570934 5.70872 
21.5314 1.40758 4.28754 
24.4268 1.37685 4.33658 
21.5186 1.6066 7.30047 
23.1273 2.90842 5.75174 
24.3618 1.59387 7.24105 
22.9005 0.102505 5.85153 
27.1406 1.53783 4.23716 
27.2392 1.49379 7.30733 
25.8289 2.99202 5.94338 
25.8831 0.0784039 5.68787 
1.41107 4.31613 4.29111 
1.44193 7.23852 4.4067 
4.08515 7.16971 4.29731 
1.37225 4.30983 7.06181 
1.4812 7.18091 7.16816 
2.75596 5.73183 5.87719 
7.25488 4.38888 4.19452 
4.22358 4.36342 4.13004 
7.13457 7.21675 4.3277 
4.39123 4.20271 7.10035 
7.16349 4.28009 7.12938 
4.42874 7.09274 7.08416 
5.79637 5.76011 5.62465 
7.23735 7.30659 7.06335 
10.07 4.14072 4.21539 
10.0128 7.14159 4.29731 
10.0051 4.28798 7.12231 
8.72842 5.54824 5.70199 
10.052 7.15389 7.11132 
11.5012 5.64182 5.75259 
12.9924 4.25768 4.33052 
15.6864 4.28551 4.27471 
12.9004 7.10836 4.34444 
15.6912 7.47825 4.11996 
12.8891 4.49764 7.121 
15.7867 4.42684 7.12078 
12.9588 7.24774 7.08177 
14.4885 5.80629 5.65156 
15.8411 7.26318 7.28201 
18.6684 4.24493 4.17464 
18.6994 7.22514 4.32676 
18.6314 4.16933 6.91015 
17.23 5.77513 5.66693 
18.7484 7.1894 7.2722 
20.0198 5.7112 5.70977 
21.477 4.26595 4.31409 
21.51 6.99419 4.48178 
24.356 7.17956 4.40133 
21.3573 4.16957 7.1105 
24.2959 4.2977 7.16896 
21.6301 7.14451 7.40336 
23.0065 5.60395 5.66199 
24.559 7.3082 7.25274 
27.3028 4.48025 4.41234 
27.224 7.29762 4.30867 
27.3102 4.52843 7.38475 
28.5532 5.79452 5.84712 
25.6858 5.70203 5.6138 
27.1229 7.18076 7.24126 
1.45608 10.1923 4.45171 
1.49338 9.99053 7.19302 
2.83995 8.66862 5.82209 
2.85527 11.4092 5.78588 
4.18605 10.225 4.25007 
7.39108 10.0041 4.26954 
4.51096 9.88174 6.94144 
5.86701 8.57529 5.67705 
7.27269 10.0536 7.11761 
5.80358 11.595 5.67552 
10.2 10.0594 4.40658 
8.80145 8.65064 5.91933 
10.3001 10.109 7.20641 
11.6199 8.56566 5.76028 
8.67336 11.5409 5.62167 
11.5932 11.6025 5.70011 
12.8336 10.134 4.44842 
15.6486 10.1498 4.34147 
12.9807 10.1512 7.05157 
14.2456 8.67849 5.77058 
15.6753 10.1192 7.06398 
14.5236 11.7195 5.5566 
18.7055 10.1628 4.19983 
20.0938 8.56516 5.82429 
17.1646 8.72384 5.59636 
18.5278 10.1542 7.16644 
17.0713 11.5109 5.57857 
19.9419 11.4236 5.6685 
21.345 10.1217 4.26921 
24.4622 9.93671 4.30031 
21.4309 10.0083 7.0214 
22.8628 8.53843 5.81547 
22.9058 11.4197 5.68574 
24.3742 10.0135 7.27066 
27.4701 10.3029 4.27702 
28.6599 11.5767 5.73502 
28.5895 8.80249 5.71223 
25.9481 8.69402 5.71084 
27.4428 10.0997 7.29859 
25.866 11.4498 5.7776 
1.61517 15.7284 4.17411 
1.53843 12.8846 7.06953 
1.51119 15.8365 7.06264 
2.80922 14.1831 5.5138 
0.151228 14.3483 5.72838 
4.27239 12.6974 4.22087 
4.3768 15.5582 4.14226 
7.10032 12.9349 4.32237 
7.09835 15.6742 4.22533 
4.33763 12.8167 7.09857 
4.14635 15.798 7.30415 
7.1936 13.1479 7.15134 
5.6582 14.5181 5.96757 
7.10151 15.8352 7.13647 
10.1735 12.9017 4.15847 
9.90671 15.7919 4.30831 
10.1159 13.0428 6.95191 
8.49115 14.3068 5.56192 
9.93026 15.8123 7.04469 
11.5714 14.5317 5.68881 
13.0373 12.986 4.24038 
15.7887 12.9706 4.20781 
12.9851 15.831 4.12991 
15.7678 15.765 4.29196 
12.9434 12.9289 7.18745 
15.7865 13.0789 7.13193 
12.817 15.8594 7.12031 
14.2506 14.3644 5.74921 
15.8622 15.8662 7.32757 
18.6406 12.9846 4.22259 
18.8376 15.7936 4.23183 
18.7989 13.0165 7.17891 
17.1679 14.4953 5.78454 
18.7538 15.8649 7.18071 
20.2865 14.3385 5.66682 
21.5914 12.852 4.38836 
21.4853 15.8229 4.11444 
24.5603 12.9138 4.34156 
24.3717 15.8797 4.23005 
21.6465 12.8136 7.12005 
21.5892 15.8391 7.13468 
22.9948 14.4549 5.59531 
24.305 12.9559 6.96401 
24.3043 15.8014 7.02637 
27.4698 12.976 4.29936 
27.4946 15.8991 4.3191 
27.1246 12.9833 7.21158 
25.9652 14.268 5.73386 
27.3581 15.8792 6.92651 
1.55574 18.543 4.19191 
1.43829 18.6829 7.04507 
3.07045 17.1624 5.62118 
2.7831 19.9752 5.5345 
0.0961949 17.2091 5.6063 
4.28979 18.7628 4.21566 
7.14981 18.6021 4.21997 
4.1249 18.6681 7.16541 
5.66252 17.1125 5.444 
7.00928 18.6416 6.88314 
5.55493 20.2128 5.74251 
8.50671 17.4034 5.58195 
10.0015 18.5672 7.12331 
11.3913 17.2308 5.68735 
8.63026 20.0389 5.77631 
11.4027 20.0351 5.69468 
12.7968 18.5758 4.42258 
15.9572 18.6358 4.31882 
12.8397 18.7086 7.16292 
14.2999 17.2887 5.81883 
15.7929 18.5717 7.22988 
14.2522 20.1237 5.82318 
18.7406 18.6395 4.25872 
17.1984 17.2869 5.6619 
18.793 18.6411 7.04178 
20.2309 17.3943 5.71877 
17.3089 20.0233 5.63371 
20.3269 20.3014 5.66508 
21.5906 18.7598 4.22657 
24.3324 18.5871 4.42409 
21.5972 18.7599 6.98399 
22.8066 17.0846 5.7065 
22.8313 20.2414 5.68635 
24.3245 18.7144 7.16214 
27.2141 18.6029 4.30244 
28.5694 20.0541 5.70926 
25.8565 17.1941 5.72442 
27.3491 18.6944 7.12593 
25.7703 20.1301 5.75233 
1.48453 21.5624 4.41386 
1.3705 24.3009 4.36201 
1.3624 21.5309 7.2435 
2.68591 23.0056 5.90134 
1.42269 24.389 7.18965 
4.22097 21.75 4.53038 
4.27397 24.3575 4.18647 
7.17391 21.409 4.39639 
7.13386 24.4352 4.408 
4.20321 21.6887 7.0808 
7.04498 21.5265 7.21203 
5.622 23.1674 5.90973 
7.19898 24.4957 7.20235 
4.24096 24.5353 7.10648 
10.1118 21.5846 4.44899 
10.0286 24.5725 4.26383 
9.84648 21.5542 7.20006 
8.63455 23.079 5.66258 
11.3509 22.8771 5.84964 
10.0796 24.3975 7.10543 
12.8815 21.4115 4.33637 
15.9067 21.4718 4.51424 
15.6427 24.4752 4.2629 
12.6322 24.3337 4.18224 
12.7834 21.5037 7.30056 
15.8031 21.5067 7.00748 
14.3652 22.8758 5.73561 
12.9275 24.415 7.19867 
15.6067 24.2973 6.99025 
18.6603 21.4627 4.25066 
18.6103 24.4694 4.25827 
18.8923 21.5046 7.0289 
17.2238 22.9566 5.74867 
20.1449 23.0493 5.75115 
18.4376 24.3972 7.16574 
24.328 21.4816 4.24275 
24.3339 24.4105 4.2135 
21.5475 21.6562 7.21314 
23.0245 22.9615 5.74259 
24.3413 24.6008 7.25048 
24.4466 21.6419 7.138 
21.4982 24.4171 7.36794 
27.1894 21.6431 4.38467 
27.3663 24.4346 4.41574 
28.5788 22.9457 5.84857 
27.2509 21.5709 7.30321 
25.7729 23.1036 5.78833 
27.0703 24.5699 7.26001 
1.376 27.3112 4.40604 
1.40509 27.3141 7.24963 
2.96704 25.9742 5.82806 
0.0571672 25.8113 5.83113 
4.23323 27.5913 4.32979 
7.21719 27.1449 4.37903 
4.32692 27.2246 7.3496 
5.54246 25.8285 5.70758 
7.15495 27.3686 7.27398 
10.0444 27.3633 4.36946 
11.4741 28.7015 5.703 
8.33579 25.8441 5.79436 
9.91031 27.2152 7.325 
11.4859 25.8087 5.70019 
12.8367 27.0361 4.38328 
15.7624 27.2652 4.33813 
14.3736 28.6649 5.61221 
12.8105 27.427 7.11984 
14.2991 25.816 5.69976 
15.9152 27.3341 7.21267 
18.7454 27.3948 4.24301 
20.2476 28.6736 5.7126 
16.9581 25.7491 5.67967 
18.5065 27.3029 7.05192 
20.1741 25.832 5.54031 
21.6545 27.3641 4.2218 
24.4072 27.21 4.20003 
21.601 27.4249 7.05523 
22.8856 25.8381 5.73253 
24.2893 27.3779 6.97119 
27.342 27.2065 4.35798 
25.7626 26.0126 5.86725 
27.3396 27.4942 7.35068 
2.7654 3.04117 8.40311 
2.82138 0.00319834 8.69579 
0.135878 0.0392552 8.73691 
0.210589 3.07431 8.57266 
1.38574 1.49663 9.91997 
2.81596 2.88276 11.4252 
2.92094 0.0252957 11.4639 
5.73067 2.87015 8.58288 
4.39466 1.36577 9.87864 
7.08887 1.36814 10.128 
5.62142 2.91048 11.3837 
5.68032 0.0593319 11.5945 
8.63399 2.95696 8.7314 
11.5951 2.99492 8.45787 
11.4374 0.235458 8.46002 
10.1112 1.48632 9.95761 
8.5426 3.00742 11.3814 
11.6185 2.98358 11.5821 
11.5504 0.0260966 11.3285 
14.4436 2.88619 8.51376 
14.484 0.0775253 8.59762 
14.5382 0.178433 11.3481 
12.9242 1.51459 9.91472 
15.8939 1.51812 9.82439 
14.4235 2.9269 11.6211 
17.3472 2.90918 8.44894 
19.9836 2.80843 8.70279 
20.2165 0.132278 8.7459 
17.333 0.00877001 8.66688 
20.0513 0.00362223 11.5552 
18.6463 1.32552 10.0126 
17.1952 2.72624 11.3435 
20.0331 2.8782 11.4804 
22.9109 2.95862 8.66503 
22.9327 0.086619 8.5087 
22.9283 0.184415 11.5968 
21.5196 1.43313 10.1241 
22.8436 2.90945 11.5477 
24.253 1.54745 9.98994 
25.8254 3.07457 8.81492 
25.5859 0.173993 8.66911 
25.9605 0.133312 11.3267 
28.5036 2.82422 11.6787 
27.3971 1.68097 9.97944 
25.973 2.9243 11.5041 
2.98009 5.74134 8.52944 
1.4487 4.47927 10.1198 
1.3882 7.33102 9.8384 
2.8502 5.71584 11.428 
5.87589 5.84976 8.47731 
4.30719 4.38641 9.92614 
4.49922 7.0845 10.1233 
6.88189 4.34699 9.93396 
7.2195 7.26374 10.0502 
5.85209 5.95916 11.6407 
8.56915 5.64736 8.58511 
11.4842 5.9387 8.62501 
10.0731 4.36362 10.0163 
9.8939 7.20662 9.82733 
8.5274 5.74206 11.3509 
11.3606 5.536 11.4762 
14.2434 5.8829 8.52118 
13.0754 4.24405 10.0303 
15.7864 4.33575 10.0292 
13.0597 7.13231 10.096 
15.7227 7.17704 10.0056 
14.4226 5.65073 11.599 
17.1352 5.7258 8.55033 
20.0715 5.68978 8.36001 
18.6702 4.36527 10.103 
18.7529 7.11824 9.95326 
17.2553 5.84825 11.3962 
20.009 5.71928 11.533 
23.0382 5.58044 8.48837 
21.5962 4.32125 10.187 
21.5548 7.21634 10.2379 
22.8391 5.84575 11.7214 
24.2153 4.45599 10.1193 
24.2647 7.33363 10.098 
28.7097 5.95633 8.63005 
25.7555 5.86543 8.83167 
28.5889 5.79324 11.4205 
27.2646 4.59114 10.0641 
27.2727 7.48223 10.0419 
25.8929 5.69786 11.6523 
3.21031 8.60232 8.47813 
2.98181 11.3708 8.49118 
0.112913 8.65275 8.59809 
0.0256508 11.7535 8.52194 
1.31828 10.1304 10.0702 
3.01037 8.62319 11.089 
2.92143 11.3039 11.5255 
0.0506111 8.54934 11.3595 
5.75033 8.72039 8.72369 
5.88431 11.4827 8.63028 
4.37755 10.181 9.98271 
7.32621 10.0644 10.1376 
5.75499 8.68259 11.5036 
5.69757 11.4854 11.5513 
8.7168 8.60418 8.53131 
11.6458 8.53813 8.70206 
8.85895 11.4994 8.41539 
11.6166 11.5651 8.55939 
11.4677 8.54434 11.3384 
10.1926 10.2001 10.0085 
8.84588 8.66917 11.5576 
8.63119 11.5031 11.5495 
11.5501 11.5983 11.5441 
14.3366 8.6649 8.68894 
14.5162 11.6182 8.47711 
13.1232 10.1996 10.0666 
15.959 10.1286 9.90714 
14.4491 8.68658 11.4336 
14.5955 11.502 11.2678 
17.3877 8.62262 8.54153 
20.0978 8.6175 8.65057 
17.2591 11.7008 8.54327 
20.1079 11.4016 8.65658 
18.6408 9.88738 10.0344 
17.2966 8.64133 11.4784 
20.1199 8.6431 11.608 
17.2499 11.6117 11.4966 
20.1425 11.4495 11.5709 
22.9672 8.64133 8.60149 
22.9119 11.4056 8.59192 
21.5541 10.0677 10.0123 
22.8543 8.64819 11.4156 
23.1494 11.4967 11.2726 
24.4309 9.90659 10.101 
25.8812 8.63777 8.80532 
25.9397 11.3738 8.63348 
28.6108 11.4821 11.4516 
27.2771 10.1183 10.0897 
25.8121 8.48958 11.5859 
25.8921 11.5466 11.4224 
2.87378 14.2604 8.47978 
0.0934169 14.4575 8.55512 
1.54486 12.9186 9.88098 
1.34404 15.8245 10.0241 
2.92853 14.4382 11.3892 
0.172998 14.3524 11.333 
5.70825 14.3923 8.66783 
4.22874 12.943 10.0664 
4.37497 15.7746 10.0991 
7.1603 12.94 10.123 
6.94386 15.7845 9.87628 
5.7252 14.2928 11.6808 
8.56472 14.5513 8.61309 
11.341 14.5128 8.561 
10.1529 13.1073 9.97159 
10.0863 15.8129 10.1401 
8.54299 14.4711 11.2968 
11.397 14.4002 11.5939 
14.2964 14.4011 8.63647 
13.0044 13.0585 10.1416 
15.8708 13.1261 10.0295 
12.9229 15.9369 9.9039 
15.9999 15.6899 9.93853 
14.2861 14.3972 11.3182 
17.4192 14.2325 8.54146 
20.1996 14.3381 8.57865 
18.8432 12.7996 10.0796 
18.8108 15.7315 10.0035 
17.3875 14.4698 11.5024 
20.1092 14.4612 11.4681 
23.001 14.3869 8.42508 
21.4962 12.9048 9.93635 
21.7688 15.7951 9.92205 
22.8889 14.2886 11.4132 
24.4506 15.9061 10.0003 
24.3288 13.0594 9.98411 
25.9878 14.5593 8.51588 
27.229 12.8388 9.85606 
27.4401 15.9483 9.92925 
26.1832 14.4147 11.229 
2.72778 17.1541 8.56005 
3.02515 20.1429 8.60021 
0.144713 17.3248 8.54417 
1.62266 18.702 10.0592 
2.87896 17.182 11.6052 
2.8159 20.1149 11.4965 
0.064885 17.3156 11.3791 
5.76215 17.0826 8.47584 
5.73395 20.014 8.5309 
4.2277 18.7237 10.0318 
7.28515 18.654 9.9765 
5.72589 17.4277 11.4091 
5.62106 20.1905 11.4195 
8.43483 17.2815 8.44474 
11.3679 17.2075 8.53249 
8.49081 20.1538 8.54124 
11.3882 20.3561 8.6449 
9.91966 18.8699 9.97406 
8.47914 17.217 11.5429 
11.4451 17.3808 11.3877 
8.34849 20.0934 11.5095 
11.3824 20.029 11.4516 
14.2585 17.3896 8.5398 
14.2269 20.1716 8.57697 
12.6392 18.9496 9.99211 
15.8292 18.542 10.0679 
14.1551 17.3565 11.4423 
14.4063 20.0033 11.4778 
17.4995 17.2739 8.62115 
20.1143 17.2634 8.67415 
17.2732 20.1099 8.31696 
20.1992 20.0135 8.62368 
18.6594 18.7475 10.0043 
17.2372 17.2431 11.2725 
20.0944 17.1723 11.4649 
17.3232 20.1952 11.4417 
20.0166 20.0552 11.3754 
22.9992 17.2794 8.45635 
23.0222 20.1933 8.61632 
21.4519 18.5745 10.0345 
23.0861 17.2993 11.4805 
22.982 19.9683 11.6688 
24.4715 18.666 10.0233 
28.6826 20.0045 8.58292 
25.7502 17.289 8.46972 
25.7164 20.0541 8.60497 
28.6096 20.1314 11.4985 
27.2494 18.792 10.0979 
25.9735 17.2644 11.3175 
25.7453 20.129 11.4947 
2.72579 23.0469 8.72687 
0.0139988 22.9533 11.604 
1.21402 24.5174 10.364 
1.29295 21.5517 9.84044 
2.77669 23.1107 11.6047 
5.59895 22.9697 8.58242 
7.13606 24.1455 10.042 
4.26631 24.3171 10.1853 
4.19554 21.5411 10.1542 
6.94355 21.6177 10.0109 
5.69973 22.8696 11.6228 
8.41198 22.9121 8.64221 
11.2989 22.948 8.51824 
10.0862 24.2999 10.1613 
9.85468 21.4711 9.99584 
8.64534 22.8735 11.5884 
11.581 22.7755 11.5928 
14.3322 22.9765 8.58651 
15.8625 24.5003 9.75305 
13.0732 24.3315 9.97286 
14.4415 22.7261 11.4521 
15.7472 21.3868 9.97906 
12.9375 21.5678 10.1202 
17.0863 22.8801 8.58822 
20.2512 22.9884 8.74541 
17.3823 23.1755 11.236 
20.2015 22.8627 11.4373 
18.6436 21.5552 9.9611 
18.8742 24.5236 9.78081 
23.0108 23.1701 8.65206 
22.9083 22.9409 11.4838 
24.3674 21.6099 9.8646 
21.5855 21.6487 9.98757 
21.5398 24.5219 10.1973 
28.5638 23.0598 8.52275 
25.8086 22.9165 8.52373 
25.8579 22.9499 11.3258 
27.2486 21.5083 9.86998 
27.1231 24.4776 9.99685 
2.9918 25.7756 8.76938 
0.00718585 25.8323 8.73781 
0.170913 28.6199 11.3548 
1.34077 27.1428 10.0938 
2.93165 25.9593 11.4608 
5.74611 28.5924 8.70333 
5.75091 25.8677 8.75113 
5.77182 25.7382 11.7229 
4.32836 27.306 9.92109 
7.04306 27.2318 10.0557 
8.45191 28.6144 8.80153 
8.73273 25.7881 8.73362 
11.4491 25.7949 8.7588 
8.61219 28.6991 11.5048 
11.4941 26.0024 11.4022 
8.58341 25.8577 11.4473 
10.0464 27.4054 9.94595 
14.2758 25.8971 8.45566 
15.2783 24.8514 11.7718 
14.0677 26.3898 11.3762 
15.9099 27.151 10.0874 
12.7984 27.4572 9.77957 
17.1881 25.8517 8.54461 
20.1062 25.933 8.35383 
17.3737 25.6329 11.3225 
18.8041 27.2602 10.1473 
20.1631 25.8688 11.329 
17.3218 28.5254 11.3501 
22.8667 25.9027 8.76243 
21.7019 27.453 10.1509 
23.0684 26.007 11.5596 
24.3342 27.3834 10.1061 
24.3725 24.616 10.1005 
25.7207 25.9377 8.62365 
28.52 26.117 11.562 
27.1298 27.3493 9.89649 
25.7492 25.8904 11.4546 
1.39733 1.57071 12.9242 
2.94773 0.0368419 14.1954 
1.36271 1.46553 15.6106 
3.07323 2.94721 14.5061 
4.26565 1.49148 12.8184 
7.27261 1.48974 12.9338 
4.33479 1.51651 15.9015 
7.2153 1.4025 15.8749 
5.8133 2.89991 14.4688 
5.81254 0.039496 14.3618 
10.1378 1.51273 12.8279 
11.5559 0.0120687 14.258 
10.1005 1.50793 15.7396 
11.4198 2.89093 14.3762 
8.77446 2.89373 14.4715 
13.0512 1.32409 12.8752 
15.8756 1.48507 12.7698 
12.8539 1.52138 15.9531 
15.8377 1.55388 15.9527 
14.5563 2.88847 14.4481 
18.7723 1.37271 12.9958 
20.1192 2.86874 14.2815 
18.6731 1.24122 15.9048 
18.5702 4.05625 15.7928 
17.3695 2.47454 14.4259 
20.1706 0.104247 14.5833 
21.4864 1.46 13.0939 
24.3667 1.59751 12.93 
23.1742 0.162826 14.3241 
21.6212 1.58731 15.893 
24.3056 1.36958 15.6845 
22.8711 3.17484 14.4051 
27.1132 1.37866 12.8855 
27.2885 1.37181 15.7194 
28.6149 2.97263 14.3878 
25.9673 2.92775 14.3942 
1.47261 4.14817 12.9517 
1.56341 7.10044 12.7725 
2.83421 5.64631 14.3303 
0.218248 5.90714 14.3207 
1.53905 4.35896 15.83 
1.53082 7.22831 15.5577 
7.18325 4.38004 13.0328 
4.47857 4.47209 12.8777 
4.21802 7.40038 12.8952 
7.26193 7.19103 13.0022 
4.26932 7.1038 15.8028 
4.28829 4.32597 15.9773 
7.2493 4.31986 16.03 
7.19349 7.17474 15.8562 
5.79925 5.75646 14.3912 
10.0128 4.39598 12.9964 
10.1117 7.10435 12.8862 
10.1036 4.59617 15.6924 
9.88328 7.30267 15.9253 
8.60434 5.85726 14.5756 
11.5308 5.90518 14.3808 
12.8956 4.20787 13.0496 
16.0889 4.26994 13.0741 
12.967 7.15403 12.8124 
15.78 7.23031 12.9848 
14.3789 5.76388 14.2399 
15.8026 4.395 15.8695 
12.9246 4.30536 15.8533 
13.0104 7.09648 15.8413 
15.8336 7.26126 15.8265 
18.5912 4.35604 12.7167 
18.7579 7.12543 12.9123 
18.7504 7.23696 15.8899 
17.1787 5.94042 14.3725 
20.0601 5.80228 14.3837 
21.4276 4.33857 12.7911 
21.4891 7.16176 12.9888 
24.4649 7.11182 12.828 
24.4793 4.21164 12.9226 
23.0797 5.72345 14.4279 
21.3151 4.3738 15.6764 
21.3856 7.19948 15.8619 
24.3626 7.2531 15.9057 
24.3537 4.11375 15.829 
27.3374 4.47843 13.0136 
27.3621 7.18208 13.0004 
27.1887 4.32959 15.862 
27.2486 7.27608 16.0611 
25.895 5.83242 14.6015 
1.42313 10.11 12.9327 
2.9982 8.67541 14.3493 
1.58961 9.85722 15.7522 
2.88814 11.3442 14.4643 
4.3774 9.97879 12.8021 
7.29892 9.91058 12.9624 
5.80153 11.4543 14.2705 
4.43338 10.0781 15.8853 
7.17859 9.90734 15.7286 
5.72583 8.58603 14.5375 
10.2604 9.94176 12.9399 
8.66492 8.46904 14.2373 
11.6903 8.64668 14.3259 
8.74886 11.4671 14.299 
11.6902 11.3733 14.1278 
10.0727 9.95351 15.5295 
13.0463 9.98406 12.7926 
15.8745 10.1619 12.8842 
14.3134 11.5768 14.2064 
13.0378 10.0487 15.833 
15.8729 10.1499 15.7275 
14.489 8.78764 14.3822 
18.6223 10.0642 13.2334 
17.2447 8.65263 14.3461 
20.4215 11.3788 14.2412 
18.721 10.0098 15.7728 
17.3333 11.6039 14.393 
20.1482 8.68185 14.4485 
21.8359 10.0991 12.8434 
24.4246 10.117 12.9507 
22.8851 8.61409 14.2832 
22.9924 11.5632 14.1603 
21.7083 10.0328 15.848 
24.4938 10.2921 15.8711 
27.2954 9.97974 12.8765 
28.6464 8.74759 14.3213 
27.2422 10.0946 15.7584 
25.6502 8.48999 14.3664 
25.9088 11.5235 14.3836 
28.6196 11.709 14.357 
1.57166 12.9354 12.7451 
1.37502 15.7893 12.8614 
0.0431783 14.4393 14.2676 
2.8782 14.5542 14.3451 
1.28785 12.943 15.711 
1.32287 15.9572 15.9248 
4.29865 15.783 13.0298 
4.23053 12.9122 13.0558 
7.36034 12.9109 12.9357 
6.99552 15.9318 12.818 
5.63563 14.2949 14.014 
4.3003 15.8232 15.7624 
4.31624 12.9592 15.6432 
7.27604 12.832 15.8065 
7.33731 15.7518 15.623 
10.2734 12.8584 12.9873 
9.96319 15.6819 12.9474 
11.5818 14.3747 14.1885 
8.61346 14.4293 14.1485 
10.0857 12.9572 15.7988 
10.1744 15.5806 15.613 
13.1137 12.9693 12.8133 
15.8629 13.0219 12.9473 
12.8861 15.9386 12.7501 
15.8444 15.6336 12.7527 
14.3471 14.3644 14.1084 
12.8816 12.9348 15.7766 
15.848 13.0682 15.7002 
12.9936 15.6179 15.5922 
15.8717 15.744 15.7678 
18.6488 12.8542 13.0438 
18.7245 15.7407 12.738 
20.1053 14.3486 14.3309 
18.8424 12.8091 15.632 
18.7184 15.7949 15.7759 
17.2489 14.4449 14.4318 
21.5266 12.9639 12.8293 
21.518 15.8871 13.0115 
24.4853 15.6945 12.7564 
23.0989 14.5032 14.2525 
24.5402 13.0002 12.8352 
21.6254 13.0968 15.7515 
21.4629 15.9141 15.7024 
24.4079 13.112 15.6103 
27.2104 12.8511 12.8704 
27.3215 15.7489 12.8224 
24.6666 15.7935 15.9167 
27.3125 12.8891 15.7801 
27.2114 15.7464 15.6439 
25.8045 14.2635 14.4091 
1.47921 18.7125 12.8308 
1.28156 18.4966 15.9082 
2.86002 17.2812 14.4327 
2.70992 19.9495 14.4227 
5.85027 17.195 14.2655 
4.40515 18.746 13.0467 
7.1418 18.7108 12.853 
4.37894 18.5955 16.0379 
7.25725 18.6488 15.7984 
5.68716 20.2227 14.4006 
11.3563 17.2357 14.1317 
10.0003 18.8633 12.9048 
11.4454 20.1774 14.2544 
8.65911 17.1898 14.3343 
10.0074 18.6174 15.8464 
8.75025 20.1488 14.4283 
14.4566 20.1639 14.3038 
12.9655 18.7251 12.9309 
15.8546 18.4824 13.0004 
12.9098 18.5104 15.6829 
15.9669 18.7463 15.7144 
14.3808 17.1142 14.3601 
17.2232 20.2373 14.2583 
19.9992 19.9573 14.292 
18.7488 18.7961 12.7541 
20.0844 17.115 14.1739 
17.2216 16.9626 14.1907 
18.5932 18.7096 15.758 
21.4651 18.7548 12.9163 
24.5092 18.7584 12.9901 
23.0429 17.2452 14.4535 
21.551 18.4989 15.6676 
24.4191 18.6297 15.85 
23.1713 20.2085 14.4467 
27.3399 18.582 13.0262 
28.6489 17.2883 14.2314 
25.7084 17.2087 14.1771 
25.8007 20.1671 14.3004 
27.1917 18.4929 15.8668 
28.6765 19.9405 14.3961 
1.4549 24.5064 12.9873 
1.49355 21.5938 13.0203 
4.03284 21.4888 13.1402 
1.32835 21.4005 15.7723 
1.40405 24.3095 15.9733 
2.86819 22.9784 14.5353 
4.26136 24.3292 13.078 
7.08012 21.3369 12.9514 
7.21101 24.3565 12.7876 
5.96574 23.0477 14.4402 
4.26611 21.4818 15.9047 
7.33453 21.3618 15.8146 
4.35383 24.4146 15.7101 
7.1798 24.3261 15.7503 
10.1303 24.3975 12.8831 
10.0154 21.6697 12.8373 
8.74002 23.05 14.3154 
11.7124 22.93 14.4235 
10.0849 21.7808 15.8332 
10.1747 24.4588 15.844 
16.3246 24.2144 13.5578 
13.0343 24.474 12.8 
13.0063 21.5675 12.8591 
15.9544 21.5772 12.7591 
14.4588 23.0871 14.3311 
12.9762 21.4342 15.8042 
15.6803 21.5816 15.8061 
13.0464 24.475 15.8176 
15.8037 24.2787 15.9194 
18.6754 21.5514 12.8399 
18.7088 24.4398 12.9323 
20.2961 22.869 14.2979 
18.8751 21.6055 15.9407 
18.8305 24.1946 15.6706 
17.4406 22.6645 14.4183 
24.4363 24.3775 12.8833 
21.5617 21.3195 12.8809 
21.4825 24.4528 12.8162 
24.4357 21.6738 12.8908 
22.9194 22.8589 14.399 
21.7116 21.3467 15.9054 
24.4946 21.6322 15.9668 
24.46 24.248 15.8521 
21.5818 24.3327 15.7671 
25.8855 23.0809 14.3134 
27.2961 24.4926 12.8418 
27.2258 21.622 12.7753 
27.1096 21.4739 15.9751 
27.2708 24.4944 15.9835 
28.6204 22.9815 14.4194 
2.98767 25.7848 14.1929 
1.48404 27.2493 13.1431 
0.0506058 28.6392 14.1781 
1.35742 27.3462 15.7608 
5.79465 25.7392 14.1855 
4.21168 27.3259 13.061 
7.32917 27.2159 12.8552 
4.42572 27.3263 15.7767 
7.13386 27.3293 15.6323 
11.7049 25.6862 14.2829 
8.68667 25.7226 14.328 
10.1644 27.0999 13.0431 
8.67192 28.6431 14.27 
10.07 27.3634 15.726 
15.9457 27.0143 12.7488 
12.9931 27.4363 12.9678 
14.5051 28.6631 14.2505 
12.9949 27.274 15.8858 
15.8588 27.2681 15.9299 
14.4325 25.8802 14.3679 
18.7228 27.2249 12.8592 
17.3914 28.7107 14.2895 
20.0067 25.8809 14.2752 
18.7278 27.3795 15.9253 
17.5343 25.9706 14.666 
24.6013 27.2496 12.9794 
21.606 27.4538 13.029 
22.937 25.7633 14.3147 
21.5519 27.3149 15.7033 
24.1919 27.2419 15.6388 
27.2058 27.2186 13.0346 
27.1056 27.1042 15.7777 
25.8095 25.8114 14.4297 
25.7812 28.6441 14.3858 
28.6905 25.6998 14.3905 
1.38179 1.24704 18.531 
2.82382 2.84895 17.2113 
0.0310792 2.96443 17.1557 
2.7616 2.7313 19.9083 
0.027509 2.78896 20.1303 
4.2415 1.40132 18.6351 
7.18864 1.38751 18.7927 
5.64835 2.71188 17.3767 
5.71884 2.94677 20.2062 
5.58649 0.0787656 20.0836 
10.0631 1.33116 18.8028 
8.66626 2.88532 17.3111 
11.3716 2.88298 17.263 
8.67566 2.73617 20.1291 
11.503 2.74422 20.0655 
12.8738 1.3077 18.6754 
15.7908 1.34706 18.8397 
14.2762 2.85946 17.3782 
14.4159 0.0505906 17.1713 
14.355 2.7385 20.0826 
14.3873 0.0785744 20.0482 
18.7934 1.54075 18.6698 
17.192 2.71256 17.4538 
20.1146 2.94926 17.3071 
20.4057 0.0415584 17.1418 
17.2952 2.83497 19.93 
20.1019 2.99462 20.0413 
17.4465 0.263772 20.1653 
21.6339 1.36771 18.6722 
22.9094 2.96375 17.2789 
24.4783 1.44308 18.6461 
23.0444 0.155197 17.1712 
22.985 2.72889 19.9994 
22.938 0.00996959 20.1109 
27.2113 1.35772 18.5437 
25.7933 2.75744 17.1707 
25.8799 0.0154864 17.1728 
26.038 2.76804 19.8483 
25.761 0.0950128 20.0536 
1.36787 4.22602 18.64 
1.3948 7.21916 18.7871 
2.89417 5.73307 17.3925 
0.0647161 5.81614 16.9862 
2.86343 5.83485 20.0997 
4.30753 4.35232 18.6576 
4.41137 7.36252 18.6284 
7.19525 4.22357 18.738 