ITEM: TIMESTEP
78043
ITEM: NUMBER OF ATOMS
2001
ITEM: BOX BOUNDS pp pp pp
0.0000000000000000e+00 2.8712000000000000e+01
0.0000000000000000e+00 2.8712000000000000e+01
0.0000000000000000e+00 2.8712000000000000e+01
ITEM: ATOMS x y z c_cna 
1.4346 1.44611 1.42195 3 
2.86872 2.8828 2.85654 3 
0.000346596 0.0100108 2.85807 3 
2.86928 0.0102654 2.85669 3 
4.30352 1.44676 1.41992 3 
7.17384 1.44776 1.41826 3 
5.73661 2.88509 2.85269 3 
5.73738 0.0109702 2.85323 3 
10.0464 1.44839 1.41855 3 
8.60722 2.88759 2.85014 3 
11.4826 2.88678 2.85136 3 
8.60801 0.0121885 2.85145 3 
11.4817 0.0130944 2.85315 3 
12.92 1.44769 1.41955 3 
15.793 1.44687 1.41979 3 
14.3573 2.88528 2.85265 3 
14.3564 0.0118106 2.85431 3 
18.665 1.44625 1.42 3 
17.2305 2.88399 2.85356 3 
20.1012 2.88241 2.85541 3 
17.2291 0.0104452 2.85408 3 
20.1027 0.0117086 2.85364 3 
22.9727 2.88269 2.85644 3 
24.4081 1.4465 1.4214 3 
21.5372 1.44674 1.4203 3 
22.9741 0.0114231 2.85508 3 
28.7119 2.88182 2.85821 3 
27.2775 1.44604 1.42243 3 
25.8424 2.88188 2.85803 3 
25.8431 0.0103535 2.85746 3 
1.43428 4.31799 1.42204 3 
1.43446 7.18911 1.42254 3 
2.86874 5.75456 2.85706 3 
7.17374 4.32102 1.41801 3 
4.30325 4.31939 1.4199 3 
4.30395 7.19062 1.42088 3 
7.1753 7.19138 1.41979 3 
5.73731 5.7574 2.85382 3 
10.047 4.32092 1.4181 3 
10.048 7.19114 1.41963 3 
8.60974 5.75814 2.85257 3 
11.4838 5.75734 2.85301 3 
12.9206 4.32007 1.41879 3 
15.7935 4.31921 1.41945 3 
12.9208 7.19049 1.41997 3 
15.7933 7.1898 1.42051 3 
14.3575 5.75625 2.85387 3 
18.6655 4.31842 1.4202 3 
18.6652 7.18912 1.42117 3 
17.2301 5.75523 2.8549 3 
20.1014 5.75396 2.85634 3 
21.5364 4.31759 1.42137 3 
21.5363 7.1884 1.42203 3 
22.9715 5.75276 2.85797 3 
24.4067 7.18794 1.42292 3 
24.4072 4.31759 1.42218 3 
27.277 4.31747 1.42275 3 
28.7116 5.75309 2.85858 3 
27.2769 7.18823 1.42318 3 
25.8418 5.75269 2.8587 3 
1.4353 10.0592 1.42327 3 
2.86983 8.62472 2.85833 3 
2.87102 11.4945 2.85911 3 
0.000784473 11.4938 2.85932 3 
4.30551 10.06 1.42254 3 
7.1767 10.0602 1.42191 3 
5.74012 8.62579 2.857 3 
5.74164 11.4948 2.85853 3 
10.0486 10.06 1.42161 3 
8.61201 8.62586 2.85633 3 
11.4845 8.62535 2.85634 3 
8.61298 11.4946 2.858 3 
11.4847 11.4942 2.8577 3 
12.9208 10.0595 1.42162 3 
15.7928 10.059 1.42182 3 
14.3569 8.62472 2.85667 3 
14.3566 11.4938 2.85763 3 
18.6647 10.0585 1.42212 3 
17.229 8.62416 2.85716 3 
20.1005 8.62358 2.85779 3 
17.2286 11.4933 2.8577 3 
20.1004 11.4929 2.85793 3 
21.5362 10.0581 1.42254 3 
22.9714 8.62305 2.85857 3 
22.9718 11.4927 2.8584 3 
24.407 10.058 1.4231 3 
28.712 8.62362 2.85908 3 
27.2773 10.0584 1.42347 3 
25.8418 8.623 2.85912 3 
25.8425 11.493 2.85903 3 
1.43622 12.9292 1.42355 3 
1.43665 15.7994 1.42332 3 
2.87168 14.3646 2.85928 3 
0.00158217 14.3639 2.85917 3 
4.30671 15.7997 1.42309 3 
4.30643 12.9296 1.42324 3 
7.17723 12.9294 1.42266 3 
7.17707 15.7992 1.42217 3 
5.74208 14.3645 2.85874 3 
10.0486 12.929 1.42214 3 
10.0481 15.7985 1.4212 3 
8.61288 14.364 2.85789 3 
11.4843 14.3634 2.85717 3 
12.9205 12.9286 1.42182 3 
15.7926 12.9281 1.4217 3 
12.92 15.7979 1.42052 3 
15.7925 15.7972 1.42009 3 
14.3563 14.3629 2.85667 3 
18.6648 12.9276 1.42171 3 
18.6654 15.7966 1.41982 3 
17.2288 14.3623 2.85638 3 
20.1014 14.3618 2.85635 3 
21.5367 12.9274 1.42192 3 
21.5382 15.7963 1.41996 3 
22.9734 14.3618 2.85698 3 
24.4096 15.797 1.42101 3 
24.408 12.9275 1.42252 3 
27.2783 12.9283 1.42329 3 
27.2791 15.7985 1.42266 3 
25.8437 14.3628 2.85835 3 
1.4365 18.6702 1.4229 3 
2.87164 17.235 2.85886 3 
2.87109 20.1059 2.85814 3 
0.00174322 20.106 2.85833 3 
0.00191332 17.2346 2.85871 3 
4.30622 18.6701 1.42232 3 
7.17699 18.6701 1.42147 3 
5.74197 17.2349 2.85811 3 
5.74071 20.105 2.85652 3 
10.0478 18.6694 1.42022 3 
8.61197 17.2337 2.85638 3 
11.4832 17.2325 2.85486 3 
8.61217 20.1054 2.85541 3 
11.4828 20.1039 2.8535 3 
12.9198 18.6686 1.41945 3 
15.7927 18.6678 1.4189 3 
14.3558 17.2315 2.85383 3 
14.356 20.1027 2.8526 3 
18.6664 18.667 1.41832 3 
17.2295 17.2304 2.85304 3 
20.1037 17.2297 2.85264 3 
17.2307 20.1012 2.85137 3 
20.1062 20.1004 2.85023 3 
21.5398 18.6669 1.41826 3 
24.4104 18.6684 1.42011 3 
22.9763 17.2304 2.8539 3 
22.977 20.1028 2.8528 3 
27.2793 18.6698 1.42221 3 
25.8449 17.2331 2.85715 3 
25.8449 20.1051 2.85664 3 
1.4361 21.5418 1.42252 3 
2.8705 22.9775 2.85752 3 
1.43563 24.4138 1.42226 3 
0.00134745 22.9779 2.85811 3 
4.30476 24.4133 1.42086 3 
4.30546 21.5413 1.42149 3 
7.17613 21.5411 1.42036 3 
5.73941 22.9765 2.85512 3 
7.17537 24.4132 1.41966 3 
10.0483 21.5417 1.42002 3 
8.61064 22.9763 2.85364 3 
11.4842 22.9776 2.85407 3 
10.0478 24.4138 1.41989 3 
12.9203 21.5411 1.41981 3 
15.7933 21.5404 1.41964 3 
14.3569 22.9763 2.85432 3 
15.7934 24.4133 1.42088 3 
12.9206 24.4141 1.42064 3 
18.667 21.5396 1.41873 3 
17.2316 22.975 2.85318 3 
20.1054 22.9759 2.85152 3 
18.6664 24.4133 1.41973 3 
21.5397 21.5402 1.41847 3 
24.4101 21.5412 1.42009 3 
22.9762 22.977 2.8533 3 
24.4095 24.4141 1.42041 3 
21.5389 24.4138 1.41913 3 
27.2791 21.5418 1.42207 3 
25.8444 22.9777 2.85672 3 
27.2786 24.414 1.42211 3 
1.43511 27.2859 1.42207 3 
2.86991 25.8497 2.85707 3 
0.000871925 25.85 2.85806 3 
4.30412 27.2859 1.42035 3 
7.17461 27.2862 1.41903 3 
5.73838 25.8493 2.85414 3 
10.0471 27.2868 1.41965 3 
8.60943 25.8494 2.85279 3 
11.4829 25.8503 2.85437 3 
12.9199 27.2868 1.42083 3 
15.7926 27.286 1.42063 3 
14.3566 25.8501 2.8556 3 
18.6656 27.2862 1.41989 3 
17.2304 25.8498 2.85437 3 
20.104 25.8506 2.8528 3 
21.5381 27.2867 1.41966 3 
22.9751 25.8508 2.85414 3 
24.4088 27.2866 1.42084 3 
27.278 27.2861 1.42223 3 
25.8437 25.8502 2.85704 3 
1.43479 1.44613 4.29342 3 
1.43529 1.44574 7.16515 3 
2.86922 2.88287 5.72847 3 
2.87006 0.0104739 5.72838 3 
0.000365224 0.00974988 5.72966 3 
4.30302 1.44768 4.29053 3 
7.16851 1.45104 4.28378 3 
4.30443 1.44796 7.16306 3 
7.16806 1.45545 7.1556 3 
5.73574 2.88734 5.72392 3 
5.73723 0.0123707 5.72404 3 
10.0399 1.45494 4.28106 3 
10.0088 1.48598 7.12178 3 
8.59504 2.89982 5.70993 3 
11.4786 2.89698 5.71176 3 
8.59781 0.0162526 5.71179 3 
11.4718 0.0230103 5.7125 3 
12.9191 1.45237 4.28445 3 
15.7953 1.45012 4.28595 3 
12.9194 1.47193 7.13348 3 
15.8071 1.46269 7.14471 3 
14.3604 2.89282 5.71599 3 
14.359 0.0181867 5.71801 3 
18.6656 1.44686 4.28891 3 
18.6634 1.44472 7.16201 3 
17.235 2.88856 5.72017 3 
20.1006 2.8819 5.72714 3 
17.2286 0.00987004 5.7221 3 
20.1073 0.0162852 5.72019 3 
21.539 1.44858 4.28953 3 
24.4079 1.44652 4.29277 3 
21.5375 1.44738 7.16309 3 
22.972 2.88211 5.7287 3 
24.4066 1.4454 7.16526 3 
22.9736 0.0113745 5.7269 3 
27.2773 1.44578 4.294 3 
28.7119 2.88138 5.72991 3 
27.2769 1.44506 7.16569 3 
25.8418 2.88124 5.72994 3 
25.8424 0.00984184 5.72933 3 
1.43437 4.31793 4.29368 3 
1.43464 7.1888 4.29438 3 
1.43479 4.31724 7.16564 3 
1.43485 7.18843 7.166 3 
2.86931 5.75402 5.72949 3 
4.30418 7.19046 4.29306 3 
7.16862 4.32621 4.2845 3 
4.30483 7.1899 7.16544 3 
4.30259 4.32054 4.29092 3 
7.17429 7.19208 4.29084 3 
4.30404 4.31929 7.16466 3 
7.17175 4.32312 7.16282 3 
5.73817 5.75662 5.72767 3 
7.17562 7.19065 7.16464 3 
10.0438 4.32629 4.28372 3 
10.0472 7.19168 4.29036 3 
10.0395 4.32674 7.1556 3 
8.60757 5.75905 5.72387 3 
10.047 7.19026 7.16303 3 
11.4825 5.75751 5.72394 3 
12.9206 4.32428 4.28535 3 
15.7954 4.32247 4.28712 3 
12.9206 7.19069 4.29085 3 
15.7933 7.18988 4.29163 3 
12.9185 4.3231 7.15713 3 
15.7947 4.32116 7.16018 3 
12.92 7.18885 7.16325 3 
14.3572 5.75596 5.72527 3 
15.7924 7.18816 7.16423 3 
18.6673 4.32026 4.28947 3 
18.6652 7.18911 4.29261 3 
18.6661 4.31875 7.16307 3 
17.2301 5.75484 5.72682 3 
18.664 7.18787 7.16519 3 
20.1008 5.75329 5.72865 3 
21.5362 4.31751 4.29268 3 
21.5359 7.18814 4.29378 3 
24.4062 7.18759 4.29463 3 
24.4068 4.31728 4.29389 3 
21.5348 4.31615 7.1653 3 
24.406 4.31642 7.16585 3 
21.535 7.1874 7.16582 3 
22.9706 5.75206 5.72999 3 
24.4056 7.18713 7.16617 3 
27.2768 4.31711 4.29442 3 
27.2767 7.1879 4.29484 3 
27.2766 4.31647 7.166 3 
28.7117 5.75261 5.73032 3 
25.8414 5.75216 5.73043 3 
27.2765 7.18753 7.16622 3 
1.43547 10.0591 4.29488 3 
1.43558 10.059 7.16623 3 
2.87019 8.62443 5.73019 3 
2.87134 11.4945 5.73062 3 
0.000744193 11.4938 5.73071 3 
4.30591 10.0598 4.29434 3 
7.17691 10.0601 4.29355 3 
4.30638 10.0597 7.16601 3 
5.74078 8.62526 5.72945 3 
7.1777 10.0597 7.16562 3 
5.74226 11.4947 5.73029 3 
10.0487 10.0598 4.29317 3 
8.61206 8.62536 5.72836 3 
10.0492 10.0592 7.1651 3 
11.4844 8.62458 5.7282 3 
8.61355 11.4945 5.72981 3 
11.4851 11.4942 5.72948 3 
12.9207 10.0592 4.29315 3 
15.7926 10.0588 4.29335 3 
12.9208 10.0586 7.16496 3 
14.3567 8.6239 5.72856 3 
15.7922 10.0583 7.16516 3 
14.3567 11.4938 5.72932 3 
18.6643 10.0584 4.29371 3 
20.0998 8.62311 5.72978 3 
17.2285 8.62348 5.72913 3 
18.6636 10.058 7.16552 3 
17.2283 11.4934 5.72935 3 
20.0999 11.493 5.72964 3 
21.5357 10.058 4.29419 3 
24.4066 10.0579 4.29471 3 
21.5349 10.0579 7.16588 3 
22.9707 8.62274 5.73033 3 
22.9712 11.4928 5.73012 3 
24.4061 10.0578 7.16614 3 
27.2771 10.0583 4.295 3 
28.7119 8.62338 5.7306 3 
25.8414 8.62275 5.73064 3 
27.2769 10.0582 7.16626 3 
25.8421 11.4931 5.73051 3 
1.43638 12.9293 4.29509 3 
1.43679 15.7997 4.29497 3 
1.4365 12.9294 7.16632 3 
1.43694 15.8002 7.16624 3 
2.87205 14.3649 5.73076 3 
0.00151605 14.3642 5.73062 3 
4.3069 12.9297 4.29489 3 
4.30721 15.8 4.29478 3 
7.17776 12.9295 4.29435 3 
7.17755 15.7994 4.29389 3 
4.30737 12.9298 7.16627 3 
4.30781 15.8006 7.16623 3 
7.17852 12.9297 7.16602 3 
5.74277 14.3649 5.73047 3 
7.17853 15.8002 7.16586 3 
10.049 12.9291 4.29379 3 
10.0482 15.7985 4.29262 3 
10.0499 12.9295 7.16566 3 
8.61367 14.3645 5.72988 3 
10.0494 15.7998 7.1652 3 
11.4849 14.3641 5.72917 3 
12.9206 12.9288 4.29337 3 
15.7925 12.9283 4.29312 3 
12.9199 15.7978 4.29157 3 
15.7927 15.797 4.29077 3 
12.9212 12.9293 7.1652 3 
15.7926 12.929 7.16484 3 
12.921 15.7995 7.16416 3 
14.3566 14.3637 5.72849 3 
15.7933 15.7988 7.16304 3 
18.6661 15.796 4.29026 3 
18.6646 12.9278 4.29308 3 
18.6642 12.9284 7.16487 3 
17.2289 14.3631 5.72803 3 
18.6664 15.7974 7.1627 3 
20.1013 14.3623 5.72816 3 
21.5365 12.9274 4.29342 3 
21.5392 15.7956 4.29075 3 
24.4076 12.9277 4.29423 3 
21.5357 12.9279 7.16538 3 
21.5378 15.7971 7.16432 3 
22.9726 14.3623 5.72926 3 
24.407 12.9279 7.16581 3 
24.4086 15.7978 7.16518 3 
24.4093 15.7971 4.29299 3 
27.2781 12.9284 4.29485 3 
27.2789 15.7988 4.29439 3 
27.2778 12.9286 7.16614 3 
25.8433 14.3631 5.73007 3 
27.2786 15.7992 7.16588 3 
1.43669 18.6706 4.29452 3 
1.43689 18.6713 7.166 3 
2.87208 17.2356 5.73052 3 
2.8717 20.1066 5.73 3 
0.00180686 17.2351 5.73034 3 
0.00168462 20.1065 5.72992 3 
4.30665 18.6704 4.29399 3 
7.17723 18.6702 4.29271 3 
4.3075 18.6713 7.16589 3 
5.74283 17.2356 5.73005 3 
7.17872 18.6716 7.16527 3 
5.74154 20.1056 5.72873 3 
10.0461 18.6675 4.2894 3 
8.6127 17.2344 5.72864 3 
10.0474 18.669 7.16297 3 
11.4833 17.2329 5.72674 3 
8.61281 20.1059 5.72708 3 
11.4784 20.0993 5.72003 3 
12.9179 18.6653 4.287 3 
15.7927 18.6635 4.28522 3 
12.9187 18.6666 7.16002 3 
14.3561 17.2318 5.72511 3 
15.7948 18.6647 7.15687 3 
14.3529 20.095 5.7158 3 
18.6695 18.6616 4.28361 3 
17.2308 17.2302 5.72372 3 
18.6739 18.6611 7.15528 3 
20.1058 17.2287 5.72363 3 
17.2347 20.0909 5.71156 3 
20.1184 20.0881 5.70972 3 
21.5449 18.6616 4.28443 3 
24.411 18.6673 4.2909 3 
21.5417 18.6647 7.16248 3 
22.9753 17.2311 5.72746 3 
22.9778 20.1006 5.72373 3 
24.4094 18.6686 7.16438 3 
27.2792 18.6699 4.29372 3 
25.8442 17.2337 5.72938 3 
27.2787 18.6706 7.1655 3 
25.8444 20.1051 5.72836 3 
1.43633 21.5421 4.29406 3 
1.43591 24.4139 4.29373 3 
1.43674 21.5428 7.16569 3 
2.87129 22.978 5.72938 3 
1.43647 24.4144 7.16535 3 
0.00130862 22.9782 5.72965 3 
7.1722 24.4113 4.28725 3 
4.30563 21.5413 4.29285 3 
4.30481 24.4133 4.29189 3 
7.17443 21.5393 4.28953 3 
4.30698 21.5424 7.1653 3 
7.17604 21.5404 7.16304 3 
5.73991 22.9765 5.72694 3 
7.17356 24.412 7.16019 3 
4.30659 24.4142 7.16436 3 
10.0446 24.4114 4.28598 3 
10.0478 21.541 4.28884 3 
10.05 21.5431 7.16188 3 
8.60615 22.9716 5.72014 3 
11.4848 22.9781 5.72201 3 
10.032 24.3996 7.14462 3 
12.918 21.5378 4.28586 3 
15.7942 21.5356 4.28436 3 
15.7954 24.4112 4.28774 3 
12.9207 24.4141 4.28845 3 
12.9062 21.5252 7.14453 3 
15.7939 21.516 7.13324 3 
14.3543 22.9698 5.71791 3 
12.9263 24.4197 7.15618 3 
15.8026 24.404 7.12965 3 
18.6735 21.5331 4.281 3 
18.671 24.4124 4.28449 3 
18.7045 21.5019 7.1215 3 
17.2415 22.965 5.7124 3 
20.1156 22.9718 5.71167 3 
18.6906 24.4126 7.13332 3 
21.545 21.537 4.28375 3 
24.4106 21.5403 4.2905 3 
24.4096 24.4138 4.29107 3 
21.543 24.4139 4.28547 3 
21.5454 21.5325 7.15534 3 
22.9763 22.9756 5.72391 3 
24.4077 24.4132 7.1632 3 
24.4091 21.54 7.16283 3 
21.5419 24.4117 7.15702 3 
27.2789 21.5418 4.29342 3 
27.2783 24.414 4.29347 3 
27.2783 21.5422 7.16505 3 
25.8436 22.9775 5.72829 3 
27.2777 24.414 7.16502 3 
1.43539 27.286 4.29351 3 
1.43597 27.286 7.16509 3 
2.8708 25.85 5.72882 3 
0.000869075 25.85 5.7296 3 
4.30399 27.2862 4.29112 3 
7.17045 27.2862 4.28549 3 
4.30583 27.2868 7.16334 3 
5.73874 25.8495 5.72541 3 
7.17161 27.2883 7.15714 3 
10.0424 27.2877 4.2845 3 
8.60192 25.8464 5.71601 3 
10.0228 27.2874 7.13342 3 
11.4766 25.8477 5.718 3 
12.9179 27.2889 4.28775 3 
15.7926 27.286 4.28847 3 
12.9107 27.296 7.12976 3 
14.3566 25.85 5.72467 3 
15.787 27.2803 7.15626 3 
18.6688 27.2886 4.286 3 
17.2368 25.8523 5.718 3 
18.6814 27.3004 7.14467 3 
20.1115 25.8537 5.716 3 
21.5412 27.2887 4.28724 3 
21.5399 27.2879 7.16018 3 
22.9748 25.8505 5.72535 3 
24.407 27.2857 7.1643 3 
24.4088 27.2867 4.29184 3 
27.2778 27.286 4.29368 3 
25.8429 25.8499 5.72874 3 
27.2772 27.2856 7.16531 3 
2.8702 2.88182 8.60093 3 
2.87125 0.0102854 8.60031 3 
0.000363318 0.00922899 8.60111 3 
1.43565 1.44506 10.0367 3 
2.87047 2.88131 11.4725 3 
2.87172 0.00974302 11.4724 3 
0.000336859 0.00888746 11.4723 3 
5.7391 2.88435 8.6003 3 
5.74041 0.0131571 8.59748 3 
4.30611 1.4463 10.0364 3 
7.17539 1.4484 10.0368 3 
5.73978 2.88335 11.4725 3 
5.74271 0.0108517 11.4724 3 
8.60556 2.88929 8.60069 3 
11.4696 2.89425 8.58458 3 
11.3873 0.107515 8.4973 3 
8.60048 0.0252035 8.58455 3 
10.0441 1.45071 10.0471 3 
8.60679 2.88799 11.4725 3 
11.485 2.87852 11.4725 3 
8.61613 0.00982129 11.4724 3 
14.3564 2.88878 8.5915 3 
14.3889 0.0597285 8.55569 3 
14.3521 0.112184 11.4724 5 
12.8984 1.45539 10.0058 3 
15.802 1.45642 10.0272 3 
14.3473 2.8818 11.4725 3 
17.2325 2.88544 8.59657 3 
20.098 2.87928 8.60082 3 
20.1042 0.0136886 8.59655 3 
17.2205 0.00170549 8.59912 3 
20.1005 0.00965506 11.4723 3 
18.6586 1.43985 10.0371 3 
17.2286 2.88164 11.4725 3 
20.0967 2.87797 11.4724 3 
22.9705 2.88068 8.60125 3 
22.9698 0.00788452 11.4723 3 
21.535 1.44498 10.0367 3 
22.97 2.88005 11.4724 3 
24.4056 1.44428 10.0369 3 
22.971 0.00923243 8.60057 3 
28.7119 2.8807 8.60139 3 
25.8412 2.88039 8.6015 3 
28.712 2.88035 11.4724 3 
27.2766 1.4444 10.0369 3 
25.841 2.88001 11.4724 3 
25.8413 0.00876345 8.60122 3 
25.8408 0.00817837 11.4723 3 
2.86976 5.75343 8.60133 3 
1.43501 4.31672 10.037 3 
1.43494 7.1882 10.0371 3 
2.86988 5.7532 11.4726 3 
5.73926 5.75556 8.60082 3 
4.30471 4.31844 10.0368 3 
4.30517 7.18958 10.037 3 
7.17334 4.32152 10.0366 3 
7.17649 7.18997 10.0369 3 
5.73959 5.7552 11.4726 3 
8.6106 5.75567 8.60032 3 
11.4818 5.7543 8.59751 3 
10.0465 4.31936 10.0368 3 
10.0487 7.18854 10.0365 3 
8.61157 5.75491 11.4726 3 
11.4841 5.75192 11.4725 3 
14.3554 5.75251 8.59885 3 
12.9159 4.31662 10.0321 3 
15.7905 4.31609 10.036 3 
12.9197 7.18679 10.0358 3 
15.7909 7.18624 10.0367 3 
14.3535 5.74986 11.4725 3 
17.228 5.75227 8.60058 3 
20.0993 5.75184 8.60124 3 
18.6637 4.31625 10.0368 3 
18.6629 7.18685 10.037 3 
17.2267 5.75098 11.4725 3 
20.0987 5.75125 11.4725 3 
22.9698 5.75126 8.6016 3 
21.5336 4.31497 10.037 3 
21.5343 7.1869 10.0371 3 
22.9695 5.75091 11.4725 3 
24.4055 4.31579 10.037 3 
24.4053 7.18682 10.0372 3 
28.7117 5.75196 11.4725 3 
28.7117 5.75217 8.60162 3 
25.841 5.75164 8.60169 3 
27.2765 4.316 10.0371 3 
27.2764 7.1873 10.0372 3 
25.8409 5.75141 11.4725 3 
2.87044 8.62424 8.60161 3 
2.87157 11.4945 8.60178 3 
1.43564 10.059 10.0372 3 
2.87051 8.62421 11.4726 3 
2.87163 11.4946 11.4726 3 
0.000673963 11.4939 11.4725 3 
0.000699407 11.4938 8.60177 3 
5.74145 8.62483 8.60137 3 
5.74279 11.4947 8.60167 3 
4.30666 10.0596 10.0372 3 
7.17828 10.0595 10.0371 3 
5.74169 8.62473 11.4726 3 
5.74301 11.4948 11.4726 3 
8.61317 8.62438 8.60098 3 
11.4847 8.62337 8.60034 3 
8.61432 11.4944 8.60144 3 
11.4857 11.4941 8.60114 3 
11.4853 8.62286 11.4726 3 
10.05 10.0589 10.0369 3 
8.61369 8.62409 11.4726 3 
8.61469 11.4945 11.4726 3 
11.4861 11.4942 11.4725 3 
14.3561 8.62258 8.6006 3 
14.3568 11.4938 8.60095 3 
12.921 10.0582 10.0367 3 
15.7918 10.0578 10.0368 3 
14.3557 8.62189 11.4725 3 
14.3568 11.4939 11.4725 3 
17.2274 8.62243 8.60119 3 
20.0989 8.62257 8.60148 3 
17.2278 11.4935 8.60099 3 
20.0991 11.4932 8.60126 3 
18.6629 10.0578 10.0369 3 
17.2269 8.622 11.4725 3 
20.0985 8.62235 11.4725 3 
17.2275 11.4936 11.4724 3 
20.0987 11.4933 11.4724 3 
22.9701 8.62247 8.60167 3 
22.9706 11.493 8.6015 3 
21.5344 10.0578 10.0371 3 
22.9699 8.62235 11.4725 3 
22.9703 11.4931 11.4725 3 
24.4057 10.0578 10.0371 3 
28.7119 8.62322 8.60175 3 
25.8411 8.62256 8.60177 3 
25.8418 11.4931 8.60167 3 
28.7119 8.62318 11.4726 3 
27.2768 10.0582 10.0372 3 
25.841 8.62248 11.4725 3 
25.8417 11.4932 11.4725 3 
2.87231 14.3652 8.60178 3 
1.43655 12.9296 10.0372 3 
1.437 15.8005 10.0371 3 
2.87239 14.3653 11.4725 3 
0.00142801 14.3647 11.4724 3 
0.00146881 14.3645 8.60167 3 
5.74335 14.3652 8.60172 3 
4.30764 12.93 10.0372 3 
4.30815 15.8009 10.0371 3 
7.17903 12.9299 10.0371 3 
7.17919 15.8008 10.0371 3 
5.74356 14.3654 11.4725 3 
8.61459 14.3651 8.60153 3 
11.4861 14.3652 8.6012 3 
10.0506 12.9298 10.037 3 
10.0506 15.8008 10.0369 3 
8.61497 14.3654 11.4725 3 
11.4867 14.3657 11.4725 3 
14.3573 14.3651 8.60048 3 
12.9218 12.9299 10.0368 3 
15.7926 12.9295 10.0365 3 
12.9226 15.8015 10.0366 3 
15.7938 15.801 10.0356 3 
14.3579 14.3659 11.4724 3 
17.2288 14.3643 8.60006 3 
20.1002 14.3633 8.60064 3 
18.6635 12.9289 10.0366 3 
18.6648 15.7992 10.0361 3 
17.2283 14.365 11.4723 3 
20.0997 14.3637 11.4723 3 
22.9719 14.3628 8.60105 3 
21.5351 12.9282 10.0368 3 
21.5369 15.7978 10.0364 3 
22.9716 14.3631 11.4723 3 
24.4082 15.7982 10.0366 3 
24.4067 12.9281 10.037 3 
25.8429 14.3634 8.60139 3 
27.2777 12.9288 10.0371 3 
27.2784 15.7996 10.0369 3 
25.8428 14.3637 11.4724 3 
2.87243 17.2361 8.60166 3 
2.87229 20.1074 8.60149 3 
0.00154517 20.1072 8.60128 3 
1.43698 18.6718 10.037 3 
2.87253 17.2364 11.4724 3 
2.87246 20.1078 11.4723 3 
0.00144904 20.1075 11.4722 3 
0.00171358 17.2356 8.6015 3 
0.00165258 17.2359 11.4723 3 
5.74371 17.2365 8.60159 3 
5.74304 20.1071 8.60123 3 
4.30803 18.672 10.037 3 
7.17991 18.6727 10.037 3 
5.74401 17.2368 11.4724 3 
5.74357 20.1077 11.4724 3 
8.6142 17.2359 8.6012 3 
11.4855 17.2354 8.60048 3 
8.6155 20.1085 8.60073 3 
11.4809 20.1023 8.5964 3 
10.0498 18.6715 10.0366 3 
8.61481 17.2364 11.4724 3 
11.4868 17.2367 11.4724 3 
8.61677 20.1097 11.4723 3 
11.4849 20.1061 11.4723 3 
14.358 17.2352 8.59865 3 
14.3571 20.099 8.59126 3 
12.9229 18.6717 10.0358 3 
15.7975 18.6711 10.0318 3 
14.3601 17.2379 11.4723 3 
14.3662 20.1059 11.4722 3 
17.2316 17.2334 8.59718 3 
20.1028 17.2321 8.59991 3 
17.2437 20.0936 8.58425 3 
20.1078 20.0986 8.6003 3 
18.6669 18.6684 10.0364 3 
17.2294 17.2359 11.4722 3 
20.1018 17.2329 11.4722 3 
17.2285 20.1092 11.4722 3 
20.1066 20.0998 11.4721 3 
22.9741 17.2322 8.60042 3 
22.9743 20.1035 8.59992 3 
21.5401 18.6663 10.0361 3 
22.9737 17.2326 11.4721 3 
22.9736 20.1045 11.4721 3 
24.4087 18.6694 10.0364 3 
25.8437 17.2343 8.60106 3 
25.8433 20.1061 8.60067 3 
27.2784 18.6711 10.0367 3 
25.8434 17.2347 11.4722 3 
25.8429 20.1065 11.4721 3 
2.87236 22.9791 8.60125 3 
0.00123542 22.9787 8.60106 3 
0.00112299 22.9789 11.4722 3 
1.43686 24.4149 10.0367 3 
1.43693 21.5434 10.0369 3 
2.8727 22.9796 11.4723 3 
5.74252 22.9786 8.60057 3 
7.17861 24.4162 10.0359 3 
4.30847 24.4158 10.0367 3 
4.30796 21.5435 10.0369 3 
7.17853 21.5428 10.0366 3 
5.74374 22.9799 11.4723 3 
8.60928 22.9742 8.59646 3 
11.4929 22.9861 8.59896 3 
10.0382 24.4047 10.0271 3 
10.0548 21.5479 10.037 3 
8.61301 22.9781 11.4723 3 
11.5026 22.9958 11.4722 3 
14.3245 22.9281 8.55547 3 
15.9428 24.2637 9.63442 5 
12.9579 24.4511 10.0498 5 
14.3613 22.8754 11.4722 5 
15.815 21.5324 10.0055 3 
12.9114 21.5313 10.027 3 
17.3261 22.8804 8.49705 3 
20.1129 22.9627 8.58428 3 
17.177 23.0295 11.4721 5 
20.0973 22.9779 11.4721 3 
18.6693 21.5371 10.0467 3 
18.6741 24.3914 10.0055 3 
22.9731 22.9748 8.59721 3 
24.4056 24.4126 10.0355 3 
21.5354 24.4089 10.0318 3 
21.538 21.5394 10.0364 3 
22.9707 22.9769 11.4721 3 
24.4073 21.5416 10.0361 3 
25.8423 22.9777 8.60013 3 
27.2771 24.414 10.0365 3 
27.2778 21.5428 10.0366 3 
25.8417 22.9781 11.4722 3 
2.8721 25.8507 8.60064 3 
0.000809478 25.85 8.60098 3 
0.000729369 25.8499 11.4723 3 
2.87273 25.8511 11.4723 3 
1.43639 27.2859 10.0365 3 
5.74218 25.8514 8.59884 3 
7.17804 27.2909 10.032 3 
4.30785 27.2872 10.0357 3 
5.74478 25.8533 11.4723 3 
8.60591 25.8504 8.59141 3 
11.435 25.8178 8.55558 3 
10.0393 27.3084 10.0057 3 
8.61281 25.8594 11.4723 3 
11.3824 25.8545 11.4723 5 
11.5364 28.6703 11.4724 5 
12.7706 27.436 9.63476 5 
14.3567 25.8499 8.63816 5 
15.7555 27.2486 10.0499 5 
13.6077 26.5989 11.4723 5 
15.1057 25.1008 11.4723 5 
17.2108 28.7039 11.4724 3 
17.2784 25.8821 8.55555 3 
20.1075 25.8495 8.59135 3 
20.1007 25.8403 11.4722 3 
18.6752 27.2951 10.0271 3 
17.3311 25.8451 11.4722 5 
22.9714 25.8486 8.59873 3 
24.4051 27.284 10.0366 3 
22.9687 25.8464 11.4722 3 
21.5349 27.2837 10.0359 3 
25.8415 25.8493 8.60054 3 
25.8407 25.8487 11.4722 3 
27.2767 27.285 10.0367 3 
1.43562 1.44498 12.9081 3 
2.87112 0.0101106 14.3444 3 
1.43517 1.44555 15.7796 3 
2.87014 2.88167 14.344 3 
0.00025584 0.00913019 14.3436 3 
4.30606 1.44619 12.9085 3 
7.17536 1.44827 12.9081 3 
4.30432 1.44768 15.7817 3 
7.16798 1.45515 15.7892 3 
5.73903 2.88416 14.3446 3 
5.74033 0.0129266 14.3473 3 
10.0441 1.45059 12.8978 3 
10.0089 1.48566 15.823 3 
11.4698 2.89402 14.3603 3 
8.60558 2.88907 14.3442 3 
8.60049 0.0249638 14.3602 3 
11.3873 0.107222 14.4475 3 
12.8984 1.45526 12.9391 3 
15.8021 1.45626 12.9176 3 
12.9195 1.47157 15.8113 3 
15.8072 1.4623 15.8001 3 
14.3565 2.88855 14.3534 3 
14.389 0.0594185 14.3891 3 
18.6587 1.43972 12.9077 3 
18.6635 1.44437 15.7828 3 
17.2325 2.88522 14.3483 3 
20.098 2.87908 14.344 3 
20.1042 0.0134466 14.3481 3 
17.2205 0.00141843 14.3456 3 
21.535 1.44488 12.908 3 
24.4056 1.4442 12.9078 3 
22.971 0.00904561 14.3441 3 
21.5375 1.44711 15.7816 3 
24.4066 1.4452 15.7794 3 
22.9705 2.88051 14.3435 3 
27.2766 1.44436 12.9078 3 
28.7119 2.88059 14.3435 3 
27.2768 1.44493 15.779 3 
25.8412 2.88028 14.3433 3 
25.8412 0.00865697 14.3434 3 
1.43499 4.31666 12.908 3 
1.43492 7.1882 12.908 3 
2.86973 5.75338 14.3437 3 
1.43474 4.31711 15.7793 3 
1.43479 7.18843 15.779 3 
7.17331 4.32143 12.9084 3 
4.30468 4.31837 12.9082 3 
4.30515 7.18959 12.9082 3 
7.1765 7.18996 12.9083 3 
5.73924 5.75546 14.3442 3 
4.30481 7.18991 15.7796 3 
4.30398 4.3191 15.7803 3 
7.17173 4.32289 15.782 3 
7.17567 7.19058 15.7803 3 
10.0466 4.31927 12.9082 3 
10.0488 7.18851 12.9086 3 
11.4819 5.75419 14.3475 3 
10.0395 4.32648 15.7892 3 
10.0471 7.19016 15.7819 3 
8.61064 5.75553 14.3447 3 
12.916 4.31655 12.9129 3 
15.7906 4.31599 12.909 3 
12.9198 7.18678 12.9092 3 
15.7909 7.1862 12.9083 3 
14.3556 5.7524 14.3461 3 
15.7948 4.3209 15.7847 3 
12.9187 4.32285 15.7877 3 
12.9202 7.18878 15.7816 3 
15.7926 7.18808 15.7807 3 
18.6638 4.31616 12.9082 3 
18.6629 7.1868 12.908 3 
17.228 5.75212 14.3444 3 
18.6662 4.31849 15.7818 3 
18.6641 7.18774 15.7797 3 
20.0994 5.75169 14.3437 3 
21.5336 4.31489 12.9079 3 
21.5343 7.18684 12.9079 3 
24.4053 7.18676 12.9078 3 
24.4055 4.31572 12.9078 3 
22.9698 5.75113 14.3433 3 
21.5348 4.31592 15.7796 3 
21.535 7.18728 15.7791 3 
24.4056 7.18705 15.7787 3 
24.406 4.31624 15.779 3 
28.7117 5.75209 14.3434 3 
27.2765 4.31593 12.9078 3 
27.2764 7.18726 12.9079 3 
27.2766 4.31633 15.7789 3 
27.2764 7.18748 15.7787 3 
25.841 5.75154 14.3432 3 
1.43562 10.0591 12.908 3 
2.87041 8.62432 14.3436 3 
2.87152 11.4947 14.3434 3 
1.43549 10.0592 15.7788 3 
0.000632999 11.494 14.3432 3 
4.30665 10.0597 12.9081 3 
7.1783 10.0596 12.9081 3 
4.30638 10.0598 15.7791 3 
7.17776 10.0598 15.7794 3 
5.74146 8.6249 14.3438 3 
5.74282 11.4948 14.3435 3 
10.05 10.0589 12.9083 3 
8.61324 8.62439 14.3441 3 
11.4848 8.62339 14.3447 3 
11.4858 11.4943 14.3439 3 
10.0493 10.0593 15.7798 3 
8.61437 11.4946 14.3436 3 
12.9211 10.0583 12.9084 3 
15.7918 10.0579 12.9082 3 
14.3569 11.494 14.344 3 
12.921 10.0588 15.7799 3 
15.7924 10.0584 15.7797 3 
14.3563 8.62261 14.3444 3 
18.6629 10.0579 12.908 3 
17.2278 11.4936 14.3439 3 
18.6636 10.0581 15.7793 3 
20.0989 8.62253 14.3435 3 
17.2275 8.62242 14.3438 3 
20.0991 11.4933 14.3436 3 
21.5344 10.0579 12.9079 3 
24.4057 10.0578 12.9079 3 
22.9701 8.62245 14.3433 3 
22.9706 11.4931 14.3433 3 
21.5349 10.058 15.7789 3 
24.406 10.0579 15.7787 3 
28.7119 8.62327 14.3433 3 
27.2768 10.0582 12.9079 3 
25.8418 11.4933 14.3432 3 
27.2769 10.0583 15.7786 3 
25.8411 8.62256 14.3432 3 
1.43652 12.9297 12.9079 3 
1.43697 15.8006 12.9077 3 
0.00139632 14.3647 14.3432 3 
2.87227 14.3653 14.3432 3 
1.43641 12.9297 15.7787 3 
1.43684 15.8004 15.7786 3 
4.30812 15.801 12.9078 3 
4.30763 12.9301 12.9079 3 
7.17904 12.93 12.908 3 
7.17919 15.8009 12.9079 3 
5.74335 14.3654 14.3433 3 
4.30773 15.8008 15.7787 3 
4.30734 12.93 15.7788 3 
7.17856 12.93 15.779 3 
7.17853 15.8005 15.7791 3 
10.0506 12.93 12.908 3 
10.0506 15.8009 12.9079 3 
10.0499 12.9298 15.7793 3 
10.0495 15.8001 15.7797 3 
11.4861 14.3654 14.3437 3 
8.61462 14.3653 14.3435 3 
12.9219 12.93 12.9081 3 
15.7926 12.9296 12.9083 3 
12.9227 15.8016 12.9081 3 
15.7939 15.8011 12.909 3 
12.9213 12.9296 15.7797 3 
15.7927 12.9292 15.78 3 
12.9211 15.7998 15.7806 3 
15.7934 15.7991 15.7816 3 
14.3574 14.3653 14.3443 3 
18.6635 12.929 12.9081 3 
18.6648 15.7994 12.9084 3 
20.1002 14.3635 14.344 3 
18.6642 12.9286 15.7798 3 
18.6664 15.7977 15.7819 3 
17.2288 14.3646 14.3446 3 
21.5351 12.9283 12.9079 3 
21.5368 15.7979 12.908 3 
24.4081 15.7983 12.9078 3 
22.9719 14.363 14.3436 3 
24.4067 12.9283 12.9078 3 
21.5356 12.9282 15.7793 3 
21.5377 15.7973 15.7802 3 
24.4069 12.9282 15.7789 3 
24.4085 15.798 15.7794 3 
27.2777 12.9289 12.9078 3 
27.2784 15.7997 12.9078 3 
25.8428 14.3637 14.3433 3 
27.2777 12.9289 15.7787 3 
27.2784 15.7995 15.7788 3 
1.43694 18.6719 12.9077 3 
2.87236 17.2363 14.3431 3 
2.87217 20.1075 14.3432 3 
1.43675 18.6715 15.7787 3 
0.00162133 17.2358 14.3431 3 
0.00140204 20.1072 14.3432 3 
4.30798 18.672 12.9077 3 
7.17989 18.6728 12.9078 3 
4.30738 18.6715 15.7789 3 
7.17867 18.6718 15.7795 3 
5.74296 20.1072 14.3435 3 
5.74365 17.2366 14.3433 3 
11.4856 17.2356 14.3443 3 
10.0498 18.6715 12.9081 3 
8.61422 17.236 14.3437 3 
8.61551 20.1086 14.344 3 
10.0474 18.6692 15.7817 3 
11.481 20.1024 14.3482 3 
12.923 18.6717 12.9088 3 
15.7975 18.6712 12.9127 3 
12.9188 18.6668 15.7846 3 
15.7949 18.6649 15.7877 3 
14.358 17.2354 14.346 3 
14.3571 20.0991 14.3532 3 
17.2438 20.0937 14.3602 3 
18.6669 18.6685 12.9079 3 
18.6739 18.6613 15.7892 3 
20.1078 20.0986 14.344 3 
20.1028 17.2323 14.3445 3 
17.2317 17.2336 14.3473 3 
21.54 18.6664 12.9081 3 
24.4086 18.6695 12.9079 3 
22.974 17.2324 14.344 3 
21.5416 18.6649 15.7819 3 
24.4093 18.6687 15.7801 3 
22.9742 20.1036 14.3444 3 
27.2783 18.6712 12.9077 3 
25.8435 17.2345 14.3434 3 
25.8431 20.1061 14.3437 3 
27.2785 18.6707 15.779 3 
1.43675 24.4148 12.9079 3 
1.43685 21.5435 12.9077 3 
1.43651 21.5429 15.7789 3 
1.43619 24.4143 15.7793 3 
2.87219 22.9791 14.3434 3 
0.00103428 22.9786 14.3434 3 
4.3079 21.5435 12.9077 3 
4.3084 24.4158 12.908 3 
7.1785 21.5428 12.908 3 
5.74243 22.9786 14.3441 3 
4.3068 21.5425 15.7794 3 
7.17597 21.5405 15.7816 3 
4.3064 24.4141 15.7803 3 
7.17351 24.4118 15.7845 3 
7.17859 24.4161 12.9087 3 
10.0382 24.4046 12.9175 3 
10.0548 21.5479 12.9076 3 
11.493 22.9861 14.3456 3 
10.05 21.5432 15.7828 3 
10.032 24.3994 15.8 3 
8.60927 22.9741 14.3481 3 
15.9428 24.2637 13.3098 5 
12.9114 21.5314 12.9174 3 
15.815 21.5324 12.9389 3 
14.3245 22.9281 14.389 3 
12.9063 21.5253 15.8 3 
15.794 21.516 15.8113 3 
12.9264 24.4195 15.7884 3 
15.8027 24.4038 15.8149 3 
12.9579 24.4511 12.8946 5 
18.6694 21.5371 12.8975 3 
18.6742 24.3914 12.9389 3 
20.1129 22.9626 14.3601 3 
17.3262 22.8803 14.4473 3 
18.7046 21.5019 15.8229 3 
18.6906 24.4124 15.8112 3 
24.4072 21.5416 12.9081 3 
21.5354 24.4088 12.9125 3 
24.4056 24.4126 12.9088 3 
21.538 21.5394 12.9078 3 
22.973 22.9747 14.3471 3 
21.5453 21.5325 15.7891 3 
24.4089 21.54 15.7816 3 
24.4076 24.413 15.7813 3 
21.5418 24.4115 15.7875 3 
27.2777 21.5428 12.9078 3 
27.277 24.4139 12.908 3 
25.8421 22.9776 14.3442 3 
27.278 21.5422 15.7794 3 
27.2774 24.4139 15.7795 3 
1.43631 27.2858 12.9081 3 
1.43576 27.2858 15.7796 3 
2.87193 25.8505 14.344 3 
0.0006354 25.8499 14.3436 3 
7.17802 27.2908 12.9127 3 
4.3078 27.2872 12.909 3 
4.30569 27.2866 15.7814 3 
7.17156 27.288 15.7876 3 
5.74211 25.8512 14.3459 3 
10.0393 27.3083 12.939 3 
8.6059 25.8502 14.3532 3 
11.435 25.8176 14.389 3 
10.0228 27.2871 15.8113 3 
12.7706 27.4359 13.31 5 
15.7555 27.2485 12.8947 5 
14.3567 25.8497 14.3064 5 
12.9108 27.2957 15.8149 3 
15.7871 27.28 15.7884 3 
18.6752 27.295 12.9175 3 
18.6814 27.3 15.8 3 
17.2785 25.8819 14.3889 3 
20.1076 25.8493 14.3531 3 
21.5349 27.2835 12.9087 3 
24.405 27.284 12.9079 3 
21.5399 27.2877 15.7844 3 
24.4069 27.2855 15.7803 3 
22.9713 25.8484 14.3457 3 
27.2766 27.2849 12.9079 3 
25.8414 25.8492 14.3439 3 
27.277 27.2854 15.7793 3 
1.43463 1.44587 18.6513 3 
2.86913 2.88262 17.2163 3 
2.86988 0.0101971 17.2163 3 
2.8686 2.88256 20.0881 3 
0.000135872 0.00979464 20.0866 3 
0.000170533 0.00955639 17.215 3 
2.86909 0.00995589 20.088 3 