ITEM: TIMESTEP
79000
ITEM: NUMBER OF ATOMS
2001
ITEM: BOX BOUNDS pp pp pp
0.0000000000000000e+00 2.8712000000000000e+01
0.0000000000000000e+00 2.8712000000000000e+01
0.0000000000000000e+00 2.8712000000000000e+01
ITEM: ATOMS x y z 
1.36913 1.47845 1.53272 
3.06458 3.01421 2.77009 
2.63531 0.169381 0.241496 
2.9652 2.99864 0.00814849 
0.0362285 3.05693 2.88221 
0.0148557 0.0701662 0.0480334 
4.46651 1.56818 1.52975 
7.12323 1.44859 1.35283 
5.89039 2.94594 3.02583 
5.57232 0.0887089 0.0541617 
9.9807 1.60147 1.29008 
8.5547 3.04103 2.90609 
11.743 2.82764 2.96588 
8.51991 0.104201 2.72253 
11.2627 0.0039632 2.76922 
8.3392 0.102683 0.062659 
11.7203 3.05382 0.0520985 
12.9338 1.38397 1.52238 
15.9741 1.41713 1.36057 
14.4747 2.95967 2.95527 
14.4998 0.136635 2.75494 
14.4095 2.96191 0.0537037 
18.7853 1.47786 1.42858 
17.2531 2.86184 2.86384 
20.2216 2.88267 2.75001 
17.2829 0.0623602 2.93081 
20.2003 0.171902 2.89681 
22.9814 2.99589 2.9177 
24.5714 1.42179 1.37994 
21.7068 1.48018 1.51657 
23.1913 2.88126 0.139417 
27.4515 1.51123 1.3151 
26.0419 3.11186 2.78727 
25.7817 0.0252424 0.0240005 
25.9547 0.0068834 2.98148 
1.46932 4.36273 1.50484 
1.24706 7.1893 1.50454 
3.03441 6.08879 2.85553 
2.77685 5.76514 0.141981 
0.147914 5.80755 2.94539 
7.30454 4.22181 1.38568 
4.31454 4.41311 1.40348 
4.44963 7.43898 1.28843 
7.28173 7.18524 1.34712 
5.64941 5.95301 2.85556 
5.78153 5.70595 0.168729 
10.1724 4.29575 1.42002 
10.1608 7.10508 1.30175 
8.52043 5.91297 2.83025 
11.5199 5.93866 2.72995 
8.66083 5.72148 0.045305 
13.031 4.40682 1.61477 
15.7281 4.28148 1.45625 
12.9927 7.34841 1.39163 
15.9019 7.10125 1.36883 
14.485 5.8278 2.77723 
18.6421 4.3428 1.5997 
18.5879 7.05682 1.49536 
17.2518 5.68675 2.78844 
20.1929 5.91703 2.73645 
21.6433 4.3619 1.34354 
21.488 7.35297 1.40428 
22.9318 5.80081 2.87845 
24.3917 7.32262 1.3695 
24.4369 4.51083 1.45785 
23.1029 5.77409 0.025911 
27.3797 4.41064 1.27854 
27.3282 7.22107 1.0907 
25.9177 5.77388 2.79218 
1.4074 10.1444 1.46179 
2.90543 8.73928 2.91516 
3.0556 11.542 2.91838 
4.28852 10.0233 1.4404 
7.17148 9.98868 1.41009 
5.77522 8.67779 2.76028 
5.78799 11.5521 2.95218 
10.1189 10.1205 1.24525 
8.67926 8.55654 2.67065 
11.5464 8.58093 2.83536 
8.72977 11.4652 2.85979 
11.5797 11.38 2.8659 
8.58909 11.5387 0.0388083 
12.9497 9.95904 1.43641 
15.7977 10.0933 1.19423 
14.4041 8.60607 2.90451 
14.276 11.3716 2.96246 
14.304 11.4193 0.00680761 
18.4354 9.92701 1.63194 
17.0993 8.4656 2.7905 
20.1976 8.7188 2.86857 
17.1315 11.5409 2.81144 
20.1209 11.4972 2.84918 
17.3853 11.6336 0.0120855 
19.9687 8.64181 0.147801 
20.034 11.4383 0.106702 
21.5569 10.1075 1.42598 
22.9759 8.51499 2.8827 
22.9257 11.5879 2.71706 
24.41 9.91074 1.25373 
28.6266 8.53898 3.04283 
28.5582 11.5772 2.95651 
27.2987 10.1921 1.46938 
25.9837 8.70779 2.85674 
25.6344 11.4163 2.92352 
1.53217 12.95 1.50583 
1.48311 15.7941 1.41726 
3.00066 14.1276 3.0413 
2.88358 14.3225 0.0905159 
4.28607 15.7239 1.47108 
4.35693 12.8595 1.46296 
7.17464 12.9324 1.34005 
7.14915 16.16 1.41981 
5.83187 14.2914 2.8209 
5.62373 14.4638 0.0337244 
10.1638 12.74 1.31602 
10.1091 15.8013 1.22203 
10.0171 12.8412 4.09806 
8.65823 14.2995 2.62086 
11.4592 14.4355 2.73257 
8.7046 14.3713 0.0246811 
12.9153 12.9734 1.45246 
15.7059 12.9044 1.58572 
12.9336 15.7057 1.34729 
15.7759 15.912 1.38986 
14.2426 14.3423 2.99218 
14.3461 14.4557 0.0329033 
18.5559 13.1322 1.34557 
18.7687 15.7081 1.29312 
17.233 14.419 2.81434 
20.1568 14.3077 2.96539 
21.4127 13.0186 1.37435 
21.5952 15.8132 1.3875 
22.8762 14.2548 2.84335 
24.3572 15.8671 1.39339 
24.504 12.828 1.21482 
28.6307 14.3249 2.86111 
27.2512 12.8549 1.41528 
27.2501 15.7512 1.56338 
25.7334 14.2275 2.85458 
1.38441 18.6035 1.50229 
2.93812 17.0099 2.83058 
2.76996 20.0357 2.80488 
0.0888826 19.9539 2.89827 
0.00836495 17.2206 2.92191 
2.90954 20.0695 0.112228 
2.88879 17.3263 0.0501163 
4.40546 18.5562 1.60289 
7.37075 18.6944 1.24051 
5.6861 17.1729 2.74352 
5.6225 20.092 2.93453 
10.0273 18.6176 1.37269 
8.75196 17.2355 2.89593 
11.3666 17.1871 2.8326 
8.69982 19.974 2.78761 
11.476 20.1734 2.8877 
12.8272 18.2737 1.52282 
15.7684 18.794 1.35587 
14.3702 17.1114 2.93048 
14.4145 20.0306 3.0485 
18.6535 18.6503 1.45083 
17.1208 17.1637 2.80956 
20.1446 17.0897 2.87608 
17.2506 20.1421 2.8515 
20.0922 20.018 2.72404 
17.1386 20.1577 0.025692 
17.2062 17.3255 0.0138452 
21.5862 18.7062 1.37637 
24.4362 18.7916 1.39327 
22.9219 17.3403 2.68871 
22.7832 20.2164 3.00294 
28.5914 17.2137 0.211312 
27.2718 18.9599 1.49452 
25.7481 17.2959 2.79289 
25.8173 20.1449 3.04649 
25.717 17.3135 0.159922 
1.41136 21.565 1.47207 
2.95746 22.8401 2.92665 
1.5842 24.4258 1.4098 
2.95531 22.9717 0.0470993 
0.0342623 23.1439 0.0613378 
4.42474 24.4848 1.4116 
4.20613 21.2495 1.63237 
7.30895 21.5539 1.33755 
5.81683 22.9024 2.8193 
7.14248 24.5321 1.44725 
5.74376 22.9133 0.289981 
9.97053 21.5106 1.38066 
8.64438 22.9463 2.84573 
11.6163 22.8935 2.78201 
10.0789 24.4064 1.41715 
12.9987 21.504 1.49759 
15.7876 21.4486 1.54471 
14.5195 22.9806 2.84214 
15.8703 24.3972 1.36133 
12.9371 24.4309 3.99926 
14.3009 22.9732 0.000246342 
18.709 21.5231 1.61743 
17.3095 22.955 2.7905 
20.1227 22.9288 2.98219 
18.8117 24.3592 1.36792 
17.2284 22.8327 0.172121 
20.0652 22.9021 0.0908434 
21.5884 21.5605 1.34444 
24.4018 21.394 1.47728 
23.0334 22.9386 2.92374 
24.2318 24.1806 1.31302 
21.5804 24.5255 1.43543 
28.6447 22.8482 2.88063 
27.3503 21.6162 1.46175 
25.8623 22.8574 2.71648 
27.2349 24.4641 1.51046 
26.0297 22.7847 0.131029 
0.157043 28.6611 2.83216 
2.84048 28.7027 3.03387 
2.96317 25.9934 0.0522768 
1.48199 27.208 1.51404 
2.9029 25.9481 2.95315 
5.77074 28.6892 2.87189 
4.2925 27.3714 1.53071 
7.14472 27.3974 1.47983 
5.86921 25.9346 2.97374 
9.89507 27.2562 1.35351 
8.57915 25.9854 2.66143 
11.4532 25.9983 2.68232 
8.5585 25.9271 0.0698142 
11.45 25.8473 0.116332 
13.0321 24.6388 1.34124 
12.99 27.2496 1.41085 
15.8959 27.3665 1.5022 
14.499 25.9026 2.85051 
17.4514 28.5264 0.14415 
18.7418 27.1557 1.74461 
17.2478 25.5676 2.86336 
19.9605 25.7158 3.0487 
19.9369 26.0229 0.0721944 
17.1378 25.7172 0.0483943 
23.0427 28.5805 3.00326 
21.6042 27.1022 1.64533 
23.2976 25.7186 2.88287 
23.1167 25.7187 0.163603 
28.4961 25.6858 3.02666 
24.6417 27.3362 1.46509 
27.2923 27.3746 1.54587 
25.9555 25.9701 2.96821 
25.9143 25.8041 0.0180849 
1.28198 1.54657 4.31623 
1.43934 1.39763 7.32556 
2.90387 2.90988 5.84806 
2.94494 0.00951648 5.67786 
0.0101993 2.93831 5.83847 
0.11604 0.122045 5.86754 
4.20616 1.628 4.36707 
7.14601 1.57057 4.2233 
4.39424 1.37776 7.14325 
7.28401 1.32646 7.23757 
6.02099 2.84524 5.83424 
5.87436 0.139944 5.53417 
10.0575 1.48522 4.17903 
10.0747 1.57751 7.15531 
8.6639 2.85497 5.71996 
11.2885 2.8714 5.72641 
8.52597 0.0982084 5.76024 
11.4474 0.084429 5.77298 
13.0802 1.5392 4.34406 
15.929 1.42517 4.45997 
13.1528 1.6134 7.12167 
15.9955 1.51869 7.18055 
14.6324 2.89706 5.70792 
18.6961 1.63868 4.20894 
18.5443 1.44023 7.2491 
17.2982 3.23121 5.82686 
20.1152 2.84406 5.64692 
17.4391 0.0573385 5.52985 
21.7875 1.39117 4.37146 
24.5142 1.67617 4.15046 
21.6259 1.41323 7.22741 
23.0889 3.04819 5.85391 
24.4122 1.49715 7.28866 
27.249 1.69066 4.3483 
27.3709 1.42525 7.26243 
25.7726 2.82111 5.80884 
25.8178 0.205011 5.79706 
1.58248 4.36543 4.27114 
1.60438 7.27255 4.35618 
1.42211 4.49907 7.26903 
1.51523 7.3451 7.29797 
2.99838 5.90779 5.9057 
0.13963 5.80018 5.86466 
4.45521 7.45774 4.30493 
7.258 4.4505 4.24167 
4.48945 4.32791 4.46124 
7.21064 7.34299 4.19247 
4.49195 7.21568 7.13863 
4.41252 4.39608 7.11694 
7.33461 4.31233 7.25465 
5.81577 5.70068 5.7945 
7.21753 7.09892 7.14711 
10.2006 4.28134 4.20214 
9.98644 7.14331 4.17635 
10.292 4.30324 7.31899 
8.74594 5.80918 5.9714 
10.2639 7.15355 7.22133 
11.6249 5.7702 5.76003 
13.0561 4.53735 4.24344 
15.7828 4.30344 4.24129 
12.9895 7.11767 4.2315 
15.9196 7.09553 4.26071 
13.1366 4.43469 7.10055 
15.9838 4.38987 7.1766 
12.9997 7.1278 7.2472 
14.5783 5.82861 5.66533 
16.0233 7.21987 7.14838 
18.8044 4.3484 4.25416 
18.6818 7.27153 4.24088 
18.8142 4.23671 7.18817 
17.3365 5.7408 5.65068 
18.4417 7.1218 7.11261 
20.1144 5.75688 5.60971 
21.4832 4.38897 4.34525 
21.4629 7.2758 4.22706 
24.4743 7.06766 4.17527 
24.5399 4.39162 4.19208 
21.4991 4.47628 7.1435 
24.4273 4.277 7.25162 
21.4999 6.9212 7.16873 
22.9884 5.78034 5.61255 
24.4242 7.28853 7.19295 
27.3581 4.31016 4.31567 
27.3635 7.05811 4.37261 
27.3779 4.1987 7.26989 
25.9225 5.69669 5.84892 
27.3765 7.10615 7.16152 
1.35206 10.1666 4.26724 
1.46295 10.1 7.15495 
3.06143 8.58012 5.9212 
2.80853 11.8455 5.78696 
0.0831356 8.65502 5.75878 
4.19866 10.1766 4.49891 
7.14322 10.0941 4.10676 
4.40138 10.0365 7.12913 
5.99621 8.65567 5.80196 
7.25895 10.0335 7.15414 
5.85187 11.357 5.69164 
10.0005 9.95768 4.23439 
8.6044 8.43541 5.79233 
10.194 10.0405 7.2784 
11.4821 8.44048 5.68266 
8.7663 11.481 5.77587 
11.4154 11.3559 5.78007 
12.9645 9.91842 4.22822 
15.9464 10.0776 4.20434 
12.8989 10.054 7.11269 
14.5382 8.58161 5.61522 
15.7549 10.0674 7.37774 
14.2416 11.4379 5.68784 
18.584 9.9002 4.23431 
20.0139 8.43112 5.7006 
17.2424 8.61685 5.5472 
18.6261 10.1213 7.16778 
17.2093 11.5217 5.58911 
20.1269 11.4893 5.64879 
21.8026 10.1284 4.37975 
24.536 10.0773 4.41379 
21.414 10.0435 6.99249 
23.082 8.51023 5.62863 
23.1547 11.6155 5.9792 
24.3935 9.80215 7.29407 
27.3026 10.2129 4.22107 
28.6636 11.4813 5.79016 
26.1054 8.56896 5.60201 
27.1567 9.98142 7.44994 
25.7261 11.4992 5.90633 
1.39814 12.9741 4.33963 
1.36242 15.7593 4.4702 
1.48139 12.8342 7.27456 
1.47952 15.6796 7.22581 
2.92183 14.3069 5.79049 
0.108352 14.344 5.9136 
4.49564 12.9139 4.4401 
4.42107 15.6902 4.34813 
7.25633 12.9668 4.24331 
7.27538 15.977 4.30363 
4.35595 12.8571 7.15832 
4.16277 15.7316 7.22535 
7.16437 12.8993 7.08293 
5.77965 14.4223 5.66849 
7.13256 15.7429 7.17947 
9.95802 15.8664 4.32016 
10.027 12.979 7.08462 
8.58687 14.3996 5.63799 
10.1337 15.7854 7.14033 
11.5209 14.2852 5.7536 
12.9551 12.9026 4.26857 
15.9145 12.9237 4.23878 
12.9449 15.788 4.27018 
15.6436 15.7387 4.38365 
12.9341 12.9024 7.19525 
15.9125 12.8806 6.95492 
12.8704 15.7692 7.3021 
14.3165 14.3535 5.81871 
15.8468 15.7199 7.1769 
18.6415 12.9607 4.18888 
18.7668 15.8325 4.21222 
18.4776 12.8848 7.07494 
17.1393 14.4042 5.65468 
18.585 15.7566 7.22504 
20.1026 14.2984 5.68004 
21.5463 12.7477 4.34443 
21.4608 15.8064 4.22381 
24.362 12.967 4.26295 
24.3799 15.9428 4.24632 
21.4427 12.9229 7.03273 
21.4094 15.8049 7.20407 
22.9524 14.37 5.66385 
24.3328 12.9328 7.24912 
24.4141 15.8251 7.22927 
27.2669 12.8323 4.40437 
27.2687 15.8004 4.37659 
27.3954 12.8748 7.12227 
25.7884 14.4245 5.70026 
27.203 15.8251 7.14276 
1.472 18.5555 4.42385 
1.55609 18.5237 7.32072 
3.00231 17.1948 5.7831 
2.79933 19.8979 5.81871 
0.167293 17.1595 5.81993 
4.39564 18.4594 4.24042 
6.98183 18.7696 4.11381 
4.29783 18.4805 7.27879 
5.75093 17.2267 5.83859 
7.17565 18.6974 7.0654 
5.82544 19.9919 5.78296 
10.1164 18.7555 4.16306 
8.64589 17.3098 5.6944 
10.1942 18.6182 7.09158 
11.6328 17.3961 5.51737 
8.60979 19.9188 5.85338 
11.5405 20.2414 5.85774 
12.9807 18.6657 4.26985 
15.7753 18.67 4.39277 
12.9145 18.5458 7.21724 
14.2739 17.0179 5.87677 
15.8427 18.493 7.11741 
14.4527 19.8378 5.96403 
18.7746 18.765 4.18379 
17.3233 17.038 5.52381 
18.6436 18.6284 7.31914 
20.1827 17.4247 5.68143 
17.3055 19.9479 5.80507 
20.1813 20.1359 5.93615 
21.5852 18.6566 4.3076 
24.3119 18.6676 4.32896 
21.6572 18.7237 7.33438 
22.8488 17.0126 5.86817 
22.911 20.0435 5.76611 
24.2547 18.5877 7.45355 
27.2463 18.5345 4.21733 
28.5608 20.0055 5.73032 
25.9096 17.3746 5.88313 
27.2126 18.6815 7.16798 
25.6888 19.9971 5.8365 
1.39276 21.3033 4.37592 
1.4725 24.1913 4.14913 
1.37924 21.3618 7.25043 
2.72859 22.7975 5.78177 
1.27818 24.5649 7.02909 
4.40017 21.3641 4.38323 
4.21257 24.3744 4.19753 
7.24358 21.425 4.30504 
7.28141 24.3607 4.33937 
4.3288 21.435 7.09783 
7.26596 21.5711 7.08355 
5.73842 22.8488 5.75218 
7.27095 24.415 6.82595 
4.4395 24.4719 7.13098 
10.067 21.4673 4.28549 
10.1686 24.3692 4.25137 
10.1841 21.5819 7.1375 
8.79986 22.8664 5.70559 
11.5463 22.9505 5.56355 
9.93845 24.527 7.24047 
13.0358 21.4618 4.41804 
15.7581 21.5422 4.53188 
15.8291 24.4629 4.3555 
12.9122 21.7082 7.01768 
15.8674 21.3711 7.11523 
14.3893 23.1903 5.66469 
12.9259 24.4248 6.98175 
15.9579 24.3733 7.07365 
18.6165 21.4713 4.40679 
18.7162 24.3551 4.41676 
18.7508 21.4108 7.07848 
17.1176 22.8239 5.67537 
20.1612 22.9139 5.56607 
18.6389 24.1941 7.01832 
21.4497 21.4074 4.26058 
24.4063 21.5043 4.25287 
24.5964 24.476 4.27572 
21.714 24.4165 4.26494 
21.5923 21.5269 7.2795 
23.1458 22.9216 5.69694 
24.3212 24.3343 7.27069 
24.4014 21.609 7.34627 
21.5196 24.3579 7.01744 
27.2071 21.5677 4.41625 
27.267 24.2255 4.55898 
28.5929 22.7163 5.94401 
27.2382 21.4215 7.18992 
25.8204 22.929 5.76797 
27.1776 24.4932 7.16557 
1.5536 27.253 4.45421 
1.50003 27.1137 7.22373 
2.94237 25.7672 5.77779 
0.011917 25.956 5.67227 
4.29573 27.2775 4.35138 
7.32433 27.387 4.24053 
4.54532 27.2441 7.1266 
6.00913 25.9719 5.63651 
7.24337 27.2874 7.34748 
9.96818 27.3649 4.15924 
8.64983 26.0603 5.52477 
10.0215 27.3321 7.06947 
11.523 25.937 5.60926 
12.8159 27.3154 4.16489 
15.7951 27.3451 4.1996 
14.5119 28.6498 5.66874 
13.1055 27.3707 7.03832 
14.1252 25.9361 5.68394 
15.811 27.2937 6.91073 
18.718 27.2671 4.32142 
20.2081 28.5895 5.71588 
17.2679 25.8128 5.71368 
18.5922 27.3639 7.12501 
19.9984 25.8078 5.65939 
21.6283 27.0637 4.33247 
24.5522 27.3044 4.44144 
22.9323 28.5694 5.6606 
21.4627 27.12 7.33271 
22.93 25.7144 5.83134 
24.1447 27.1619 7.16852 
27.4805 27.537 4.24443 
25.8031 25.9799 5.70753 
27.4033 27.3491 7.13931 
2.90851 2.83399 8.58178 
0.127445 2.85972 8.69954 
0.134849 0.043855 11.615 
1.66265 1.47242 10.2087 
3.03321 2.96636 11.7834 
3.01245 0.00326971 11.6036 
0.144341 2.9402 11.4356 
5.72556 2.61107 8.63664 
4.18267 1.44791 10.091 
7.31989 1.49585 10.0046 
5.81536 2.76803 11.5295 
8.80884 2.82088 8.63303 
11.7398 2.98802 8.71758 
11.4503 0.0603454 8.51314 
8.70781 0.0905282 8.57816 
10.0315 1.37768 9.96524 
8.52661 2.86359 11.616 
11.3722 2.72466 11.4847 
14.378 2.83193 8.68835 
14.5546 0.0780621 8.52728 
14.2384 0.141675 11.492 
12.8871 1.53684 9.85002 
15.5627 1.50064 10.0498 
14.416 2.95156 11.4609 
17.1931 2.97916 8.77311 
20.1728 2.90607 8.60827 
18.5761 1.51364 9.95731 
17.2737 2.97961 11.5816 
20.0658 2.64121 11.4341 
22.8946 2.89256 8.62577 
21.6108 1.55686 10.1595 
22.9203 3.07244 11.3817 
24.548 1.56416 10.017 
25.9337 2.84848 8.7575 
25.9126 0.149927 8.52412 
25.95 0.0767008 11.3703 
27.5605 1.50843 10.0181 
25.9162 2.80121 11.6128 
3.0815 5.62489 8.73187 
1.68984 4.3369 10.1391 
1.46418 6.99119 10.1758 
2.92175 5.76035 11.5027 
5.78555 5.67889 8.65031 
4.36708 4.23449 10.1128 
4.30558 7.16015 10.0105 
7.08433 4.20099 9.99433 
7.25379 7.15143 9.83378 
5.71101 5.50819 11.5562 
8.66623 5.64142 8.49517 
11.3632 5.62941 8.74132 
9.89548 4.17251 10.182 
10.0371 7.14856 10.0671 
8.58872 5.7089 11.4772 
11.1747 5.71061 11.4297 
14.401 5.88511 8.59039 
12.9876 4.44837 10.1872 
15.8017 4.26486 10.1027 
12.919 7.04916 10.0855 
15.6966 7.10995 10.079 
14.3621 5.78577 11.5271 
17.4145 5.79397 8.65674 
20.087 5.86315 8.54237 
18.7551 4.29428 9.89605 
18.6555 7.08324 10.1417 
17.2059 5.62895 11.3602 
20.1711 5.70042 11.431 
22.9759 5.80441 8.61681 
21.5725 4.52405 10.0213 
21.6568 7.38558 9.97517 
22.9863 5.60857 11.6274 
24.5269 4.23633 10.0561 
24.4076 7.19455 10.0243 
28.6082 5.78152 8.68029 
25.925 5.82428 8.547 
28.5357 5.6192 11.4432 
27.3886 4.2024 10.0184 
27.4146 7.23725 10.0699 
25.8358 5.76137 11.3537 
2.88304 8.47345 8.6556 
3.07617 11.5174 8.44766 
0.104133 8.77946 8.6544 
0.0650389 11.6088 8.55972 
1.63814 10.2688 10.0541 
2.82657 8.5677 11.2466 
2.89849 11.5777 11.5683 
0.0547608 11.4598 11.4921 
0.0497906 8.56371 11.3898 
5.85285 8.71325 8.66964 
5.80729 11.3355 8.45591 
4.30931 9.99871 9.88642 
7.24137 10.1373 9.93303 
5.79707 8.53187 11.4736 
5.73392 11.3045 11.3773 
8.73401 8.39386 8.42798 
11.5344 8.36969 8.75553 
8.70672 11.5058 8.58125 
11.5394 11.4111 8.54782 
11.645 8.61062 11.341 
9.97977 9.9807 10.0103 
8.62612 8.53846 11.462 
8.59604 11.3622 11.3671 
11.4528 11.305 11.471 
14.3043 8.5313 8.49717 
14.464 11.4729 8.63054 
13.0382 10.0482 10.0438 
15.7576 10.0954 10.058 
14.4541 8.67008 11.4893 
14.4267 11.4595 11.3884 
17.1377 8.59163 8.82971 
19.9058 8.50401 8.35208 
17.229 11.4631 8.58822 
20.0216 11.6096 8.4984 
18.6241 10.0706 10.0066 
17.2163 8.71553 11.3477 
20.1677 8.74089 11.3206 
17.3589 11.4613 11.5637 
20.1018 11.502 11.4816 
22.7137 8.74993 8.64201 
22.9034 11.3824 8.50998 
21.3705 10.2783 9.91443 
22.893 8.64011 11.5077 
22.8969 11.4701 11.4284 
24.2802 9.98976 10.0782 
25.8736 8.57087 8.5856 
25.8412 11.4796 8.85134 
27.3898 10.0227 9.97377 
25.5823 8.51985 11.6088 
25.631 11.4364 11.4128 
2.8023 14.3152 8.72583 
1.5225 12.7944 9.99375 
1.40157 15.7234 9.89479 
2.87029 14.498 11.39 
5.85868 14.362 8.44065 
4.3114 12.8539 10.005 
4.35556 15.8454 9.98462 
7.16238 12.797 9.93126 
7.25098 15.6953 9.92207 
5.75573 14.2314 11.3259 
8.49007 14.2653 8.51756 
11.39 14.2493 8.53992 
10.185 12.9221 9.97167 
10.1181 15.7939 9.88445 
8.6038 14.1698 11.3414 
11.2948 14.3422 11.4441 
14.359 14.2862 8.55924 
12.8542 12.9841 9.93616 
15.7015 12.8008 10.1277 
12.9242 15.6841 9.94625 
15.7711 15.7165 10.1642 
14.2037 14.3491 11.4713 
16.9861 14.2924 8.71049 
19.9527 14.2777 8.48423 
18.6912 13.0139 9.94882 
18.6127 15.9337 10.0283 
17.2359 14.3578 11.4561 
19.9114 14.2539 11.5241 
23.0556 14.3786 8.48027 
21.4274 13.0183 9.74564 
21.3834 15.4891 10.0227 
22.8587 14.2334 11.4991 
24.3674 15.9405 10.1738 
24.3109 12.9909 9.96906 
28.4634 14.2772 8.64046 
25.8261 14.2011 8.49747 
28.7038 14.5116 11.5922 
27.4512 13.0354 10.3311 
27.2165 15.7193 10.129 
25.802 14.4764 11.5964 
2.85404 17.0698 8.62014 
3.02241 20.1224 8.57436 
0.0580372 17.2455 8.73867 
1.54116 18.7406 9.99187 
2.89872 17.1958 11.5265 
2.90037 20.0271 11.4624 
0.0634928 20.4967 11.4661 
0.157701 17.1035 11.6163 
5.73876 17.2699 8.60131 
5.89725 20.0508 8.52358 
4.30987 18.5459 10.0609 
7.30673 18.7194 9.97213 
5.67086 17.3358 11.5427 
5.58842 19.9019 11.6103 
8.62424 17.188 8.36874 
11.4566 17.2279 8.67656 
8.66493 20.1111 8.484 
11.5906 20.1633 8.5794 
9.93346 18.5795 9.8103 
8.622 17.1714 11.3833 
11.3814 17.0834 11.4636 
8.73946 20.156 11.3997 
11.3484 20.0625 11.2653 
14.2074 17.2521 8.69318 
14.3572 20.1748 8.67943 
12.7744 18.627 10.1366 
15.8361 18.7774 9.90154 
14.2208 17.0852 11.5244 
14.2653 20.0303 11.552 
16.963 17.1152 8.66829 
20.0624 17.1977 8.52935 
17.2506 20.1289 8.64397 
20.134 20.1343 8.60353 
18.6403 18.6578 10.0138 
17.1379 17.322 11.4371 
19.8265 17.1548 11.5994 
17.2639 20.0411 11.4986 
20.0615 19.9285 11.644 
22.7879 17.1926 8.72043 
22.9463 20.0526 8.79468 
21.2233 18.6333 10.1171 
22.641 17.134 11.4816 
22.815 20.2094 11.5841 
24.2226 18.6918 10.2409 
28.4971 20.0207 8.81427 
25.8644 17.3526 8.6383 
25.7468 19.9408 8.55521 
27.3441 18.6084 10.258 
25.7096 17.3793 11.661 
25.7416 20.2399 11.3579 
2.8258 23.1235 8.42816 
0.0850776 23.0049 8.40679 
1.63349 24.5631 9.93197 
1.54559 21.4415 9.793 
2.73579 23.1524 11.3729 
5.74725 22.9556 8.55616 
7.17915 24.3897 9.89463 
4.24585 24.4485 9.98211 
4.12993 21.6444 10.1186 
7.11742 21.3586 10.045 
5.71931 22.9327 11.2597 
8.55998 22.7935 8.59805 
11.4478 23.1033 8.5872 
9.8689 24.0806 10.1085 
10.0498 21.6567 10.0517 
8.40827 22.8647 11.3933 
11.6385 23.131 11.3905 
14.4339 22.7932 8.39061 
16.0307 24.1996 9.61503 
13.214 24.5362 9.83339 
14.2394 22.6646 11.2819 
15.8176 21.5097 10.0452 
12.7677 21.3723 10.1219 
17.2451 22.7265 8.58431 
20.0318 22.9571 8.56174 
17.2185 23.0002 11.4568 
19.8855 23.0159 11.3292 
18.7024 21.466 10.189 
18.4659 24.5695 9.77327 
22.7593 22.9499 8.71545 
24.2591 24.3603 10.0363 
21.2585 24.3018 9.91064 
21.3751 21.4384 10.286 
22.7961 23.0652 11.4234 
24.2539 21.5938 10.0833 
25.8314 22.9996 8.67768 
28.5956 23.1265 11.4832 
27.0611 24.6042 9.88889 
27.391 21.5662 10.0187 
25.6531 23.0376 11.429 
3.02566 28.6959 8.62701 
0.240352 28.6673 8.83221 
2.963 25.823 8.55487 
0.111563 25.7826 11.51 
2.82579 26.0101 11.5999 
1.46756 27.2845 10.1793 
5.89816 28.636 8.62868 
5.89404 25.7297 8.56046 
7.20321 27.4251 10.082 
5.81795 28.5806 11.6015 
4.34502 27.184 9.96886 
5.78918 25.8886 11.4089 
8.78874 25.8968 8.72606 
11.3478 25.7531 8.51831 
11.4991 28.4818 11.4213 
8.6092 28.5786 11.3783 
11.2759 25.6756 11.0869 
8.59006 25.8403 11.2012 
9.87679 27.4082 9.95726 
14.4645 25.8795 8.45074 
12.8281 27.5168 9.58425 
15.1054 25.1416 11.3332 
13.3834 26.6777 11.4896 
15.7376 27.3246 10.0071 
20.2586 28.6264 8.50051 
17.2403 28.6973 8.66762 
17.0987 25.866 8.33484 
20.0973 25.7876 8.3999 
17.3655 25.677 11.3736 
18.4143 27.2264 9.93492 
20.0883 25.944 11.1995 
17.0244 28.5955 11.4936 
19.9631 28.645 11.1489 
23.0361 28.6737 8.56103 
22.9169 25.6797 8.5209 
21.6179 27.2226 9.95305 
22.8864 25.9618 11.4008 
24.4249 27.2449 9.90009 
22.9676 28.7111 11.375 
28.6933 25.8913 8.66964 
25.8089 25.9792 8.469 
27.2483 27.5348 10.0513 
25.7677 25.9291 11.4119 
1.48514 1.37602 12.9103 
0.0154246 2.7128 14.2711 
2.91573 2.8142 14.3365 
1.36223 1.40767 15.8006 
4.38833 1.49557 13.0766 
7.23296 1.47522 13.0384 
4.17304 1.4329 16 
7.02637 1.48598 16.0371 
5.77492 2.76021 14.5915 
9.90014 1.40743 12.965 
11.4126 2.79589 14.2893 
9.8766 1.67155 15.9995 
8.51198 2.81276 14.5843 
8.59656 0.075623 14.4285 
11.2398 0.260935 14.5206 
12.9062 1.50269 12.8397 
15.6666 1.58769 12.9819 
14.1203 2.89988 14.2441 
12.9514 1.4804 15.8302 
15.5856 1.59731 15.7558 
18.5356 1.29232 12.7727 
17.2567 3.09676 14.3245 
20.0257 2.6858 14.2765 
19.96 0.00875697 14.3055 
17.0787 0.108494 14.2224 
18.5693 1.59578 15.8139 
21.4773 1.40013 12.801 
24.3257 1.48555 12.8418 
22.9273 2.83314 14.2105 
21.672 1.50464 15.8486 
24.4161 1.37013 15.7617 
27.3828 1.28622 12.9387 
27.3915 1.38289 15.6315 
25.8132 2.88355 14.4458 
25.7816 0.0178058 14.3615 
1.47428 4.31473 12.9168 
1.42645 7.05399 13.0032 
2.71672 5.83356 14.339 
1.33028 4.17995 15.7119 
1.26222 7.19708 15.6863 
4.00113 4.28471 15.7392 
7.08617 4.22951 13.1794 
4.36323 4.29768 13.0489 
4.50014 7.14815 12.9612 
7.09801 6.97097 12.7969 
4.27827 7.17253 15.8255 
7.2398 4.32952 15.9954 
7.11727 7.25726 15.7147 
5.53682 5.6359 14.4431 
9.93866 4.23728 13.0361 
10.088 7.18915 12.8374 
9.9837 4.42466 15.9418 
9.97178 7.15351 15.8058 
8.51169 5.75367 14.377 
11.3257 5.58137 14.4084 
12.8172 4.26199 12.7158 
15.9365 4.33132 12.9716 
12.7713 7.11286 12.8935 
15.58 7.17455 12.8823 
14.2306 5.58466 14.2281 
15.5616 4.32702 15.7216 
12.7069 4.23375 15.6656 
12.8311 6.89666 15.7712 
15.7485 7.16467 15.6949 
18.772 4.32705 12.8703 
18.5916 7.29172 12.7027 
18.7844 4.20597 15.8277 
18.7931 7.24545 15.7572 
20.1082 5.5847 14.5143 
17.1392 5.88503 14.3847 
21.4657 4.16037 12.9366 
21.3419 7.20023 12.9426 
24.2506 7.07597 12.9948 
24.3467 4.18056 12.8805 
22.8043 5.70464 14.3627 
21.4383 4.12731 15.5677 
21.508 7.2971 15.8252 
24.3828 7.13832 15.8443 
24.4491 4.37246 15.7527 
28.5904 5.50792 14.207 
27.203 4.33942 12.9325 
27.2113 7.16886 12.9425 
25.8113 5.76647 14.2811 
27.2637 4.28539 15.764 
27.2864 7.21181 15.6865 
1.56605 10.1266 12.9442 
3.0067 8.71894 14.2882 
2.92529 11.5436 14.2308 
0.0323854 8.51466 14.1992 
1.41774 10.0483 15.5984 
4.31257 9.90172 12.7764 
7.14115 9.91162 12.9002 
5.64477 11.4906 14.2311 
4.32292 10.0105 15.7966 
7.10853 10.0385 15.7916 
5.69482 8.64689 14.3842 
9.95333 9.94917 12.983 
8.51549 8.56845 14.2512 
8.54298 11.3564 14.2633 
9.81646 9.88414 15.6868 
11.5625 8.6123 14.475 
11.246 11.4492 14.4652 
12.6256 10.0949 13.0672 
15.7645 9.9971 12.8155 
14.3166 11.3867 14.2073 
14.3133 8.4735 14.2912 
12.8285 10.2273 15.9002 
15.7389 10.0915 16.0992 
18.5705 9.95584 12.9804 
17.0776 11.5318 14.3072 
20.1307 8.73557 14.3244 
17.0794 8.72181 14.2038 
19.9615 11.6498 14.2785 
18.5703 10.0391 15.7609 
21.5159 10.0729 12.8337 
24.2881 9.98824 12.8915 
23.009 8.56708 14.2929 
22.8634 11.5756 14.2563 
21.5491 10.2261 15.7217 
24.2148 9.97987 15.6779 
27.1964 10.1646 12.9373 
25.7153 11.4469 14.2475 
27.2907 10.0867 15.7937 
25.7112 8.72271 14.4486 
28.5915 11.5745 14.371 
1.40537 12.9323 12.8002 
1.55796 15.6371 12.824 
1.34115 12.9934 15.6657 
1.502 15.7875 15.8307 
0.172916 14.3939 14.4114 
2.8616 14.3775 14.4002 
4.41734 15.5886 12.8395 
4.38991 12.9789 12.9313 
7.16929 12.7428 12.8577 
7.23309 15.7415 12.8088 
5.79437 14.1023 14.3056 
4.5203 15.6595 15.779 
4.26536 12.8923 15.7226 
7.2237 12.8881 15.5824 
7.32224 15.7459 15.7591 
10.0289 12.7269 12.9101 
9.98964 15.7224 12.902 
11.4873 14.439 14.1544 
8.63475 14.2777 14.3 
9.94251 13.0032 15.8176 
9.97985 15.5666 15.7869 
12.9415 12.7356 13.0841 
15.7333 12.8045 12.6226 
12.8705 15.9647 12.9162 
15.879 15.6943 13.0778 
14.2099 14.3548 14.3497 
12.8107 13.1672 15.8022 
15.6977 12.7424 15.8662 
12.818 16.1344 15.8574 
15.7183 15.8186 15.9048 
18.5284 12.8947 12.8967 
18.5066 15.7517 12.8822 
18.7568 12.9469 15.9403 
18.4708 15.9205 15.7698 
17.3039 14.1745 14.524 
20.1011 14.3182 14.6374 
21.5455 12.9173 13.0146 
21.4115 15.7709 12.924 
24.3055 15.9247 13.022 
24.4924 13.2186 13.0647 
21.6327 13.1422 16.0288 
21.4444 15.969 16.0206 
24.4841 12.945 15.6256 
24.4095 15.8436 15.9399 
22.8081 14.6394 14.5597 
27.103 12.912 12.8438 
27.308 15.8906 12.9781 
27.3598 12.9314 15.8707 
27.3196 15.9254 15.7675 
25.9714 14.5095 14.429 
1.59746 18.6008 12.8777 
3.01877 17.0963 14.324 
2.96401 20.0663 14.327 
0.050535 17.4048 14.113 
1.24071 18.6753 15.6357 
4.31643 18.6137 13.1054 
7.30527 18.7248 12.9413 
5.73727 17.1169 14.2274 
4.32491 18.687 15.8036 
7.02427 18.5673 15.6637 
5.77722 20.0869 14.4297 
11.4419 17.2521 14.2081 
9.98356 18.6644 12.8026 
8.64727 17.2201 14.2713 
9.99423 18.4902 15.9305 
11.341 20.0278 14.4596 
8.6109 20.0606 14.4744 
12.8592 18.7126 12.9998 
15.7612 18.5156 12.7544 
14.27 17.0316 14.2695 
14.3403 20.0247 14.3046 
12.8951 18.6901 15.8359 
15.5602 18.572 15.766 
18.5609 18.7209 13.0769 
18.616 18.6039 15.8209 
20.1479 19.8047 14.4197 
19.9413 17.0305 14.486 
17.0519 17.1477 14.4367 
17.1111 20.0032 14.4602 
21.4337 18.6008 12.972 
24.3274 18.7583 13.0126 
22.9129 17.2517 14.4539 
21.4528 18.4853 15.8274 
24.5813 18.6533 15.7253 
22.8687 19.9671 14.5914 
27.2879 18.7714 12.8739 
25.8683 20.2513 14.3006 
27.2677 18.6125 15.6637 
25.9179 17.2113 14.3875 
28.6174 20.2932 14.3568 
1.54245 24.3465 12.8993 
1.68902 21.563 12.8833 
0.137379 22.9297 14.2665 
1.51375 21.5949 15.7754 
1.52556 24.4747 15.8266 
2.93181 22.9061 14.4445 
4.27809 21.4719 12.8979 
4.29218 24.4638 12.9069 
7.05354 21.3869 13.1025 
5.65832 23.0085 14.2449 
7.11108 24.2836 12.8848 
4.3919 21.5674 15.9259 
7.1951 21.6135 15.7433 
4.30247 24.3696 15.7053 
7.2028 24.558 15.7597 
9.9732 24.2657 12.7193 
10.159 21.474 12.8065 
11.4393 23.1193 14.0957 
8.60525 22.9585 14.3377 
10.0243 21.6364 15.6749 
10.065 24.3376 15.7921 
13.0265 24.4942 12.6185 
15.9442 24.4374 13.2325 
12.8893 21.5792 13.0516 
15.8477 21.3244 12.7281 
14.3378 22.9454 14.1237 
12.8559 21.545 15.4998 
15.8129 21.5278 15.841 
12.8667 24.4587 15.5025 
15.8475 24.4914 15.7678 
18.6434 21.4868 12.8802 
18.5834 24.4358 12.8854 
20.1012 22.9176 14.2018 
18.7032 21.5691 15.6662 
18.6658 24.2995 15.622 
17.2696 22.963 14.3629 
24.1898 21.6138 12.968 
21.3714 24.5449 12.9183 
24.3537 24.54 12.8757 
21.5979 21.4677 13.0869 
22.7494 23.1791 14.2715 
21.2516 21.5256 15.8092 
24.4205 21.6629 15.8918 
21.6042 24.5841 15.6778 
27.2437 21.8299 12.643 
27.2495 24.3174 12.7677 
25.6855 22.9877 14.2198 
27.2644 21.5624 15.5858 
27.3216 24.3498 15.6191 
0.10485 25.6854 14.2344 
1.39871 27.3819 12.9904 
1.67401 27.2372 15.8271 
2.90732 25.6441 14.415 
2.84715 28.6167 14.4666 
7.15538 27.186 12.942 
4.19336 27.3014 12.9043 
5.7097 28.6643 14.3225 
4.16446 27.2016 15.9876 
7.35538 27.2969 15.8274 
5.66019 25.8853 14.5001 
11.4207 25.7281 14.1601 
8.5701 25.8356 14.2872 
9.97183 27.3079 13.0511 
9.96996 27.1923 15.7666 
14.4186 26.0169 14.2207 
15.7524 27.1387 12.6628 
12.6868 27.5197 13.3417 
14.4078 28.6994 14.2612 
12.9093 27.3161 15.7624 
15.8792 27.4295 15.6109 
18.6278 27.2424 12.9111 
17.3153 26.0696 14.3412 
19.9751 25.8272 14.2427 
18.8092 27.2315 15.8964 
24.4205 27.3375 12.8272 
21.4987 27.4845 12.8674 
22.936 28.6874 14.2156 
22.8281 25.9976 14.2113 
24.3192 24.6289 15.6593 
21.393 27.2153 15.6937 
24.3035 27.3881 15.764 
25.7386 25.8886 14.3036 
27.2453 27.2039 12.7784 
28.7014 28.523 14.4011 
27.2037 27.1478 15.7434 
1.34184 1.49452 18.7674 
2.80471 2.93883 17.3371 
0.0197043 2.74978 17.27 
2.71529 2.92437 20.0873 
0.0171558 2.8652 20.0467 
2.8849 0.0789387 20.2588 
4.14874 1.49143 18.7498 
7.0019 1.32859 18.8926 
5.51864 2.88042 17.2979 
5.6092 0.0792494 17.3053 
5.78227 3.07941 20.1257 
10.0907 1.38072 18.7455 
8.56208 2.9788 17.486 
11.4398 2.96018 17.1006 
8.53463 0.041799 17.1573 
11.3703 0.0768042 17.1535 
8.53304 2.66257 20.2957 
11.5022 2.67262 20.0408 
12.794 1.41519 18.5309 
15.6082 1.42903 18.548 
14.1881 3.02148 17.205 
14.2617 2.99041 20.2918 
14.1291 0.00596604 19.9257 
18.6295 1.30911 18.5761 
17.1319 2.98353 17.1861 
20.2141 2.82617 17.204 
17.0972 0.0380588 17.054 
17.1713 2.99189 20.0172 
20.1753 2.95777 19.9331 
17.1203 0.0139238 20.0254 
21.4131 1.4404 18.5199 
23.1305 2.98675 16.9243 
24.4632 1.52624 18.4393 
23.0919 0.0556305 17.1898 
23.1031 2.78079 20.0593 
27.2323 1.287 18.601 
25.9718 2.65722 17.0571 
25.9046 2.68787 20.0917 
25.6021 0.183441 20.0947 
1.32121 4.37252 18.4726 
1.39198 7.3259 18.5996 
2.62704 5.80886 17.1626 
2.71851 5.7078 20.0613 
4.16726 4.39702 18.5975 
4.38164 7.11564 18.7194 
7.0395 4.33909 18.6838 
5.66025 5.96253 17.2666 
7.18241 7.28585 18.481 
5.83038 5.89817 19.9451 
10.0381 4.29171 18.9084 
8.73594 5.94784 17.3687 
10.0503 7.24786 18.6124 
11.5264 5.8289 17.2272 
8.61476 5.7729 20.0411 
11.5664 5.76437 20.1611 
12.9669 4.32066 18.75 