ITEM: TIMESTEP
7043
ITEM: NUMBER OF ATOMS
18
ITEM: BOX BOUNDS pp pp pp
0.0000000000000000e+00 2.8712000000000000e+01
0.0000000000000000e+00 2.8712000000000000e+01
0.0000000000000000e+00 2.8712000000000000e+01
ITEM: ATOMS x y z c_cna 
18.6613 15.841 15.8408 5 
18.6613 18.6566 15.6867 5 
18.6613 15.687 18.6566 5 
15.8271 18.6611 18.6612 5 
16.8236 17.075 17.075 5 
18.6613 17.9123 17.9119 5 
17.2389 20.0598 17.2624 5 
20.0837 20.0599 17.2624 5 
20.499 17.0751 17.0751 5 
18.6613 19.4101 19.4106 5 
17.2389 17.2624 20.06 5 
20.0838 17.2625 20.0601 5 
16.8238 20.2472 20.2472 5 
20.4989 20.2472 20.2473 5 
21.4955 18.6612 18.6612 5 
18.6613 21.6353 18.6659 5 
18.6614 18.6658 21.6358 5 
18.6613 21.4814 21.4816 5 
ITEM: TIMESTEP
7044
ITEM: NUMBER OF ATOMS
18
ITEM: BOX BOUNDS pp pp pp
0.0000000000000000e+00 2.8712000000000000e+01
0.0000000000000000e+00 2.8712000000000000e+01
0.0000000000000000e+00 2.8712000000000000e+01
ITEM: ATOMS x y z c_cna 
18.6613 15.841 15.8408 5 
18.6613 18.6566 15.6867 5 
18.6613 15.687 18.6566 5 
15.8271 18.6611 18.6612 5 
16.8236 17.075 17.075 5 
18.6613 17.9123 17.9119 5 
17.2389 20.0598 17.2624 5 
20.0837 20.0599 17.2624 5 
20.499 17.0751 17.0751 5 
18.6613 19.4101 19.4106 5 
17.2389 17.2624 20.06 5 
20.0838 17.2625 20.0601 5 
16.8238 20.2472 20.2472 5 
20.4989 20.2472 20.2473 5 
21.4955 18.6612 18.6612 5 
18.6613 21.6353 18.6659 5 
18.6614 18.6658 21.6358 5 
18.6613 21.4814 21.4816 5 
