ITEM: TIMESTEP
80044
ITEM: NUMBER OF ATOMS
2001
ITEM: BOX BOUNDS pp pp pp
0.0000000000000000e+00 2.8712000000000000e+01
0.0000000000000000e+00 2.8712000000000000e+01
0.0000000000000000e+00 2.8712000000000000e+01
ITEM: ATOMS x y z c_cna 
1.43549 1.44591 1.42196 3 
2.87039 2.88192 2.85719 3 
0.000591187 2.8816 2.85757 3 
0.000626747 0.00985284 2.85731 3 
2.86995 0.0102346 2.8567 3 
4.30554 1.44638 1.42129 3 
7.17701 1.44641 1.42128 3 
5.74067 2.88267 2.85638 3 
5.73932 0.0113093 2.85514 3 
10.0496 1.44535 1.42242 3 
8.61306 2.88209 2.85701 3 
11.4857 2.88071 2.85839 3 
8.61131 0.0113079 2.85543 3 
11.4851 0.00924412 2.85789 3 
12.9214 1.44429 1.42336 3 
15.7924 1.44423 1.42334 3 
14.3569 2.88012 2.85892 3 
14.3569 0.00798704 2.85912 3 
18.6641 1.44526 1.42246 3 
17.2281 2.88065 2.85844 3 
20.1006 2.88204 2.8571 3 
17.2287 0.00918328 2.85797 3 
20.1023 0.0112101 2.85554 3 
22.9727 2.88262 2.85648 3 
24.4078 1.44633 1.42131 3 
21.5365 1.44635 1.42129 3 
22.9741 0.0112004 2.85524 3 
27.2777 1.44588 1.42197 3 
25.8428 2.88189 2.85724 3 
25.8433 0.0101606 2.85676 3 
1.43571 4.31737 1.42227 3 
1.43597 7.18811 1.42233 3 
2.87104 5.75284 2.85757 3 
0.000572862 5.75276 2.85771 3 
7.17809 4.31722 1.42224 3 
4.30635 4.31757 1.42197 3 
4.30715 7.18804 1.4224 3 
7.17885 7.18763 1.42272 3 
5.74223 5.75279 2.85757 3 
10.0502 4.31636 1.42293 3 
10.0505 7.18707 1.42318 3 
8.61428 5.75205 2.85822 3 
11.486 5.75126 2.85899 3 
12.9215 4.31578 1.42337 3 
15.7924 4.31572 1.4234 3 
12.9216 7.18677 1.42346 3 
15.7923 7.18674 1.42348 3 
14.3569 5.75095 2.8593 3 
18.6636 4.31632 1.42295 3 
18.6633 7.1871 1.42323 3 
17.2278 5.75123 2.85907 3 
20.0993 5.75205 2.85833 3 
21.5354 4.3172 1.42223 3 
21.5346 7.18766 1.42275 3 
22.9711 5.7528 2.85766 3 
24.4061 7.18804 1.42239 3 
24.4069 4.31757 1.42197 3 
27.2775 4.31734 1.42225 3 
27.2772 7.1881 1.42235 3 
25.8421 5.75283 2.85759 3 
1.43607 10.0582 1.42194 3 
2.87143 8.6233 2.85746 3 
2.87137 11.4929 2.85705 3 
0.000554587 8.62325 2.85748 3 
0.000590816 11.493 2.85709 3 
4.30737 10.0581 1.42205 3 
7.179 10.058 1.42239 3 
5.74289 8.62316 2.85765 3 
5.74279 11.4929 2.8572 3 
10.0504 10.0578 1.42271 3 
8.61463 8.62274 2.85815 3 
11.486 8.62241 2.85863 3 
8.61453 11.4929 2.85764 3 
11.4859 11.4929 2.8581 3 
12.9215 10.0577 1.42293 3 
15.7923 10.0577 1.42299 3 
14.3569 8.62229 2.85885 3 
14.3568 11.4929 2.85832 3 
18.6632 10.0579 1.42281 3 
17.2277 8.62245 2.85873 3 
20.0989 8.62279 2.85828 3 
17.2278 11.493 2.85823 3 
20.099 11.493 2.85782 3 
21.5344 10.0581 1.42242 3 
22.9705 8.62319 2.85773 3 
22.9705 11.493 2.85731 3 
24.4059 10.0582 1.42207 3 
27.2771 10.0582 1.42192 3 
25.8418 8.62332 2.85748 3 
25.8418 11.493 2.85708 3 
1.43584 12.9279 1.42118 3 
1.43542 15.798 1.4204 3 
2.8705 14.3623 2.85614 3 
0.000661082 14.3627 2.8565 3 
4.30529 15.7971 1.41952 3 
4.3068 12.9277 1.42106 3 
7.17859 12.9278 1.42138 3 
7.17738 15.7972 1.41968 3 
5.74137 14.3618 2.85567 3 
10.0502 12.928 1.42176 3 
10.0497 15.7978 1.42027 3 
8.61374 14.3624 2.85622 3 
11.4856 14.3628 2.85683 3 
12.9214 12.928 1.42201 3 
15.7923 12.9281 1.42208 3 
12.9212 15.7981 1.42062 3 
15.7924 15.7982 1.42066 3 
14.3568 14.3629 2.85708 3 
18.6634 12.9281 1.42186 3 
18.6639 15.7979 1.42038 3 
17.228 14.3629 2.85694 3 
20.0997 14.3625 2.85639 3 
21.5348 12.9279 1.42147 3 
21.536 15.7973 1.41979 3 
22.972 14.362 2.8558 3 
24.408 15.7971 1.41961 3 
24.4064 12.9278 1.42112 3 
27.2774 12.9279 1.42121 3 
27.2779 15.798 1.42043 3 
25.8428 14.3624 2.85621 3 
1.43521 18.6693 1.4202 3 
2.86945 17.2326 2.85515 3 
2.86924 20.1046 2.85502 3 
0.000725002 20.1052 2.85606 3 
0.000695905 17.2334 2.85601 3 
4.30441 18.6683 1.41888 3 
7.17536 18.6672 1.41816 3 
5.73833 17.2303 2.85287 3 
5.73723 20.1027 2.85219 3 
10.049 18.6685 1.41957 3 
8.61208 17.2311 2.85365 3 
11.4851 17.2322 2.85471 3 
8.60837 20.1005 2.85127 3 
11.4846 20.1035 2.85459 3 
12.9211 18.6694 1.42022 3 
15.7925 18.6694 1.42024 3 
14.3568 17.2326 2.85506 3 
14.3568 20.1045 2.85529 3 
18.6646 18.6686 1.41961 3 
17.2285 17.2323 2.85479 3 
20.1015 17.2313 2.85379 3 
17.2289 20.1036 2.85463 3 
20.1052 20.1006 2.85137 3 
21.5382 18.6674 1.41821 3 
24.409 18.6684 1.41895 3 
22.9751 17.2304 2.85302 3 
22.9763 20.1028 2.85231 3 
27.2782 18.6693 1.42023 3 
25.8439 17.2326 2.85524 3 
25.8442 20.1047 2.85513 3 
1.43521 21.5414 1.42048 3 
2.86942 22.9773 2.85551 3 
1.4353 24.4137 1.42098 3 
0.000708621 22.9775 2.85641 3 
4.3046 24.4138 1.41987 3 
4.30436 21.541 1.4192 3 
7.17497 21.5402 1.41864 3 
5.73768 22.9768 2.85301 3 
7.17543 24.4137 1.41963 3 
10.0474 21.54 1.41996 3 
8.6085 22.9756 2.85274 3 
11.4819 22.9748 2.85584 3 
10.0477 24.4131 1.42135 3 
12.9208 21.5416 1.42162 3 
15.7928 21.5416 1.42162 3 
14.3568 22.977 2.8582 3 
15.7935 24.4127 1.42332 3 
12.9202 24.4127 1.42334 3 
18.6662 21.54 1.41997 3 
17.2317 22.9748 2.85591 3 
20.1051 22.9755 2.85286 3 
18.6659 24.4131 1.42137 3 
21.5386 21.5403 1.41866 3 
24.4091 21.541 1.41923 3 
22.9759 22.9768 2.85312 3 
24.4088 24.4138 1.41991 3 
21.5381 24.4137 1.41965 3 
27.2782 21.5414 1.42049 3 
25.844 22.9774 2.85558 3 
27.2781 24.4137 1.421 3 
1.43537 27.286 1.4215 3 
2.86968 25.85 2.85612 3 
0.00070087 25.8498 2.85688 3 
4.30499 27.2864 1.42059 3 
7.17609 27.2865 1.42048 3 
5.73841 25.8505 2.85409 3 
10.0487 27.2857 1.42209 3 
8.60981 25.8504 2.85429 3 
11.4833 25.8486 2.85762 3 
12.9212 27.2841 1.42391 3 
15.7926 27.2841 1.42393 3 
14.3569 25.8465 2.86023 3 
18.665 27.2856 1.4221 3 
17.2304 25.8485 2.85768 3 
20.1038 25.8503 2.8544 3 
21.5374 27.2865 1.4205 3 
22.9751 25.8505 2.8542 3 
24.4084 27.2863 1.42062 3 
27.2779 27.286 1.42152 3 
25.8437 25.8499 2.8562 3 
1.43532 1.44581 4.29292 3 
1.43536 1.44559 7.16458 3 
2.87005 2.88181 5.72849 3 
2.86983 0.0100374 5.72816 3 
0.00063261 2.88144 5.72885 3 
0.000703292 0.00960266 5.72875 3 
4.30456 1.44671 4.29188 3 
7.17391 1.44857 4.29 3 
4.30436 1.44623 7.1639 3 
7.17336 1.44686 7.16327 3 
5.73975 2.88243 5.72779 3 
5.73803 0.0116612 5.72623 3 
10.0476 1.44741 4.29143 3 
10.0465 1.44476 7.1654 3 
8.61159 2.88194 5.72826 3 
11.4853 2.87934 5.73087 3 
8.60466 0.0162717 5.72161 3 
11.4811 0.0137415 5.72466 3 
12.9212 1.44507 4.29388 3 
15.7926 1.44504 4.29392 3 
12.9216 1.43995 7.17023 3 
15.7921 1.43995 7.1703 3 
14.3569 2.87811 5.73213 3 
14.3568 0.00981469 5.72842 3 
18.6662 1.44736 4.29157 3 
18.6671 1.44471 7.16561 3 
17.2284 2.87932 5.73097 3 
20.102 2.88189 5.72848 3 
17.2326 0.0137171 5.7248 3 
20.1089 0.0161739 5.72181 3 
21.5396 1.44848 4.29017 3 
24.4088 1.44662 4.29203 3 
21.5401 1.44678 7.16351 3 
22.9737 2.88236 5.728 3 
24.4091 1.44613 7.16411 3 
22.9755 0.0115474 5.72646 3 
27.278 1.44577 4.29297 3 
27.2781 1.44554 7.16465 3 
25.8432 2.88173 5.72861 3 
25.8436 0.00995822 5.7283 3 
1.43549 4.3173 4.29309 3 
1.43575 7.18824 4.293 3 
1.43532 4.31743 7.16442 3 
1.43552 7.18855 7.16432 3 
2.87043 5.75325 5.72836 3 
0.000600941 5.75287 5.72874 3 
4.30562 4.31763 4.29269 3 
4.30641 7.1885 4.29273 3 
7.177 4.31752 4.29272 3 
7.17814 7.18817 4.293 3 
4.3056 7.18921 7.16379 3 
4.30457 4.31844 7.1635 3 
7.17389 4.32025 7.1616 3 
5.7407 5.75398 5.72756 3 
7.17704 7.18912 7.16372 3 
10.0497 4.31617 4.29407 3 
10.0502 7.18737 4.29384 3 
10.0475 4.31878 7.16278 3 
8.61303 5.75329 5.72809 3 
10.0496 7.18786 7.16484 3 
11.4856 5.75186 5.72953 3 
12.9215 4.31505 4.2952 3 
15.7924 4.31503 4.29526 3 
12.9215 7.18688 4.29445 3 
15.7923 7.1869 4.29451 3 
12.9212 4.31634 7.16515 3 
15.7925 4.31633 7.16524 3 
12.9213 7.18689 7.16596 3 
14.3569 5.75135 5.73013 3 
15.7923 7.1869 7.16604 3 
18.664 4.31615 4.29421 3 
18.6635 7.18739 4.294 3 
18.6661 4.31875 7.16298 3 
17.228 5.75185 5.72966 3 
18.6639 7.18787 7.16506 3 
20.1005 5.75329 5.72834 3 
21.5365 4.31751 4.29292 3 
21.5353 7.18817 4.29319 3 
24.4069 7.18849 4.29283 3 
24.4077 4.31762 4.29281 3 
21.5396 4.32022 7.16185 3 
24.4088 4.31836 7.16369 3 
21.5364 7.18913 7.16398 3 
22.9727 5.75397 5.72778 3 
24.4077 7.18918 7.16399 3 
27.2777 4.31726 4.29313 3 
27.2774 7.18821 4.29305 3 
27.278 4.3174 7.16448 3 
25.8428 5.75321 5.72848 3 
27.2777 7.18856 7.16439 3 
1.43589 10.0583 4.29286 3 
1.43579 10.0586 7.16439 3 
2.87102 8.62365 5.72846 3 
2.87117 11.4931 5.7285 3 
0.000585752 8.62346 5.72862 3 
0.000630591 11.4931 5.72855 3 
4.30695 10.0583 4.29288 3 
7.17863 10.0581 4.29324 3 
4.30664 10.0587 7.16431 3 
5.74226 8.62368 5.72844 3 
7.17823 10.0585 7.16457 3 
5.74245 11.493 5.72856 3 
10.0502 10.0579 4.29383 3 
8.61419 8.62311 5.72905 3 
10.0499 10.058 7.16527 3 
11.4858 8.62252 5.7299 3 
8.61417 11.4931 5.72898 3 
11.4857 11.4931 5.72968 3 
12.9214 10.0577 4.29432 3 
15.7923 10.0578 4.29439 3 
12.9212 10.0578 7.16593 3 
14.3568 8.62233 5.73028 3 
15.7922 10.0578 7.16601 3 
14.3567 11.4931 5.73001 3 
18.6633 10.0579 4.29404 3 
20.0993 8.62316 5.7293 3 
17.2278 8.62257 5.73004 3 
18.6635 10.0581 7.1655 3 
17.2278 11.4932 5.72982 3 
20.0993 11.4931 5.72923 3 
21.5348 10.0581 4.29341 3 
24.4063 10.0583 4.29296 3 
21.5352 10.0585 7.16482 3 
22.9711 8.62368 5.72864 3 
22.9709 11.4931 5.72874 3 
24.4067 10.0587 7.16448 3 
27.2773 10.0583 4.29287 3 
25.8422 8.62364 5.72856 3 
27.2774 10.0586 7.16443 3 
25.8421 11.4931 5.72856 3 
1.43571 12.9277 4.29252 3 
1.43521 15.7977 4.29196 3 
1.43568 12.928 7.1644 3 
1.43529 15.7979 7.16422 3 
2.87033 14.3623 5.72808 3 
0.00067866 14.3628 5.72832 3 
4.30438 15.7963 4.29093 3 
4.30636 12.9275 4.29233 3 
7.17794 12.9275 4.29239 3 
7.17531 15.7956 4.28981 3 
4.30627 12.9277 7.16429 3 
4.30439 15.7966 7.16365 3 
7.17769 12.9279 7.16428 3 
5.7409 14.3618 5.7276 3 
7.17495 15.796 7.1628 3 
10.0499 12.9279 4.29309 3 
10.049 15.797 4.29104 3 
10.0494 12.9284 7.1647 3 
8.61279 14.3623 5.72754 3 
10.0474 15.7974 7.16249 3 
11.4852 14.3632 5.72859 3 
12.9213 12.9281 4.29362 3 
15.7923 12.9282 4.29369 3 
12.9211 15.7977 4.29188 3 
15.7925 15.7977 4.29194 3 
12.921 12.9287 7.16538 3 
15.7923 12.9288 7.16543 3 
12.9207 15.7991 7.16414 3 
14.3567 14.3635 5.72906 3 
15.7926 15.7991 7.16418 3 
18.6636 12.928 4.29327 3 
18.6645 15.7971 4.2912 3 
18.6639 12.9285 7.16488 3 
17.2282 14.3633 5.72871 3 
18.666 15.7975 7.16268 3 
20.1006 14.3624 5.72774 3 
21.5355 12.9276 4.29261 3 
21.5381 15.7957 4.28997 3 
24.409 15.7964 4.29107 3 
21.5357 12.928 7.16452 3 
21.5385 15.7961 7.16303 3 
22.9725 14.3619 5.72778 3 
24.4071 12.9278 7.16444 3 
24.4091 15.7966 7.16386 3 
24.4069 12.9275 4.29246 3 
27.2782 15.7977 4.29198 3 
27.2776 12.9277 4.29254 3 
27.2776 12.928 7.16444 3 
25.843 14.3623 5.72815 3 
27.2782 15.7979 7.16425 3 
1.43497 18.6688 4.29155 3 
1.4351 18.669 7.16389 3 
2.86925 17.2324 5.72734 3 
2.86906 20.1041 5.72684 3 
0.000774052 20.1051 5.72788 3 
0.000749727 17.2334 5.72801 3 
4.30267 18.6667 4.28933 3 
7.16906 18.6615 4.28414 3 
4.30286 18.6669 7.16263 3 
5.73723 17.2296 5.72531 3 
7.16832 18.6615 7.15938 3 
5.7348 20.1002 5.72277 3 
10.0472 18.6647 4.28723 3 
8.60835 17.2287 5.72307 3 
10.04 18.661 7.15498 3 
11.4846 17.2321 5.72604 3 
8.59445 20.088 5.71053 3 
11.485 20.0986 5.72104 3 
12.9208 18.6663 4.28879 3 
15.7926 18.6663 4.28884 3 
12.921 18.6684 7.162 3 
14.3567 17.2328 5.727 3 
15.7923 18.6684 7.16206 3 
14.3567 20.0998 5.7223 3 
18.6663 18.6648 4.28735 3 
17.2288 17.2321 5.72615 3 
18.6733 18.6611 7.15514 3 
20.1051 17.2288 5.72328 3 
17.2284 20.0986 5.72114 3 
20.119 20.088 5.71076 3 
21.5445 18.6617 4.28435 3 
24.4108 18.6668 4.28952 3 
21.5451 18.6615 7.15963 3 
22.9763 17.2297 5.72552 3 
22.9788 20.1002 5.72302 3 
24.4107 18.6669 7.16285 3 
27.2785 18.6689 4.29161 3 
25.8442 17.2324 5.72744 3 
27.2785 18.669 7.16397 3 
25.8445 20.1042 5.72701 3 
1.43504 21.5411 4.29172 3 
1.43521 24.4135 4.29216 3 
1.43533 21.5411 7.16377 3 
2.8695 22.977 5.72717 3 
1.43552 24.4134 7.16406 3 
0.000782984 22.9773 5.72811 3 
4.3028 21.54 4.28947 3 
4.30343 24.4136 4.29027 3 
7.16833 21.5368 4.28404 3 
7.16997 24.4137 4.28598 3 
4.30322 21.5394 7.16198 3 
7.16567 21.533 7.1554 3 
5.73602 22.9756 5.72355 3 
7.16903 24.4123 7.15788 3 
4.30417 24.4131 7.1626 3 
10.04 21.5324 4.28352 3 
10.0416 24.4117 4.28708 3 
10.0062 21.5019 7.12435 3 
8.59632 22.9717 5.71329 3 
11.469 22.9627 5.71597 3 
10.0179 24.4126 7.13827 3 
12.9211 21.5395 4.29085 3 
15.7924 21.5395 4.29091 3 
15.7972 24.409 4.29353 3 
12.9165 24.409 4.29349 3 
12.9313 21.5372 7.15959 3 
15.782 21.5372 7.15967 3 
14.3567 22.978 5.73164 3 
12.8901 24.3915 7.15475 3 
15.8234 24.3915 7.15482 3 
18.6735 21.5325 4.28365 3 
18.672 24.4116 4.28721 3 
18.7072 21.5019 7.12452 3 
17.2445 22.9627 5.71608 3 
20.1172 22.9716 5.71352 3 
18.6955 24.4125 7.13848 3 
21.5452 21.5368 4.28425 3 
24.4107 21.54 4.28963 3 
24.4101 24.4135 4.29045 3 
21.5436 24.4136 4.28618 3 
21.5478 21.5329 7.15567 3 
22.9775 22.9756 5.72382 3 
24.4094 24.413 7.16285 3 
24.4104 21.5394 7.1622 3 
21.5445 24.4122 7.15816 3 
27.2784 21.5411 4.2918 3 
27.2783 24.4135 4.29223 3 
27.2783 21.5411 7.16386 3 
25.844 22.977 5.72733 3 
27.2781 24.4134 7.16414 3 
1.43526 27.2858 4.29261 3 
1.43548 27.2856 7.16439 3 
2.86977 25.8497 5.72772 3 
0.000759156 25.8495 5.72847 3 
4.30391 27.2866 4.29111 3 
7.17161 27.2886 4.28778 3 
4.3043 27.2861 7.16333 3 
5.73721 25.8504 5.72498 3 
7.17047 27.2885 7.16004 3 
10.0447 27.2879 4.289 3 
8.60052 25.8536 5.71737 3 
10.0292 27.3003 7.14742 3 
11.476 25.8495 5.72133 3 
12.9205 27.2837 4.29398 3 
15.7933 27.2837 4.29406 3 
12.9116 27.2952 7.15365 3 
14.3568 25.8404 5.72825 3 
15.802 27.2952 7.15373 3 
18.669 27.2878 4.28914 3 
17.2377 25.8495 5.72146 3 
18.6844 27.3003 7.14764 3 
20.113 25.8535 5.7176 3 
21.5419 27.2884 4.28799 3 
24.4095 27.2865 4.29127 3 
21.543 27.2884 7.16032 3 
22.9763 25.8503 5.72523 3 
24.4092 27.286 7.16356 3 
27.2781 27.2858 4.29266 3 
25.8437 25.8496 5.72787 3 
27.278 27.2855 7.16447 3 
2.86983 2.88206 8.60006 3 
2.87015 0.00976535 8.60028 3 
1.43547 1.44571 10.0364 3 
2.86974 2.88246 11.4722 3 
0.000736188 2.88174 11.4724 3 
0.000692177 2.88149 8.60051 3 
0.000762886 0.00950815 8.60057 3 
0.000829195 0.00973777 11.4725 3 
2.87047 0.0101133 11.4724 3 
5.738 2.88394 8.59843 3 
5.73857 0.0103593 8.59967 3 
4.30426 1.44676 10.0359 3 
7.17043 1.45004 10.0335 3 
5.7371 2.88516 11.4716 3 
5.73883 0.0116604 11.4724 3 
8.60462 2.88853 8.59387 3 
11.481 2.88546 8.59642 3 
8.60658 0.00983074 8.60024 3 
10.0291 1.46264 10.0218 3 
8.60037 2.89273 11.4685 3 
11.4758 2.88875 11.4726 3 
11.4836 0.00173855 8.60837 3 
8.60244 0.018073 11.4698 3 
11.44 0.0597217 11.44 3 
14.3568 2.88178 8.60042 3 
14.3567 0.112305 11.4769 5 
12.9116 1.45646 10.027 3 
15.8019 1.45647 10.027 3 
14.3567 2.8819 11.4818 3 
17.2326 2.88546 8.59659 3 
20.1089 2.88851 8.59411 3 
20.1069 0.00976736 8.60049 3 
17.2734 0.0597459 11.4402 3 
18.6844 1.46265 10.022 3 
17.2376 2.88877 11.4728 3 
20.1131 2.8927 11.4687 3 
17.23 0.00173962 8.60854 3 
20.111 0.018023 11.47 3 
22.9755 2.88385 8.59869 3 
21.543 1.44996 10.0337 3 
22.9764 2.88509 11.4717 3 
24.4092 1.44666 10.0361 3 
22.9749 0.0102705 8.59993 3 
22.9747 0.0115621 11.4726 3 
25.8436 2.88197 8.60021 3 
27.278 1.44567 10.0365 3 
25.8438 2.8824 11.4723 3 
25.8434 0.00966553 8.60044 3 
25.8431 0.0100531 11.4726 3 
2.86997 5.75373 8.59988 3 
1.43525 4.3177 10.0362 3 
1.43538 7.18896 10.0361 3 
2.86966 5.75422 11.472 3 
0.000631418 5.75312 8.60032 3 
0.000700968 5.75347 11.4723 3 
5.73934 5.7552 8.5988 3 
4.30391 4.31916 10.0355 3 
4.30501 7.18984 10.0357 3 
7.17157 4.3224 10.0335 3 
7.17607 7.18984 10.0356 3 
5.73834 5.75618 11.4715 3 
8.61123 5.75482 8.59882 3 
11.485 5.7523 8.60094 3 
10.0446 4.32113 10.0342 3 
10.0486 7.18812 10.0365 3 
8.60964 5.75589 11.4717 3 
11.4831 5.75248 11.4736 3 
14.3568 5.75108 8.60228 3 
12.9203 4.31613 10.0385 3 
15.7932 4.31614 10.0386 3 
12.921 7.18624 10.0382 3 
15.7924 7.18627 10.0383 3 
14.3567 5.74988 11.4757 3 
17.2286 5.7523 8.60114 3 
20.1022 5.75482 8.59908 3 
18.6689 4.32114 10.0344 3 
18.6648 7.18815 10.0367 3 
17.2302 5.75248 11.4738 3 
20.1037 5.75588 11.472 3 
22.9741 5.75517 8.59905 3 
21.5419 4.32238 10.0338 3 
21.5373 7.18985 10.0358 3 
22.9751 5.75617 11.4716 3 
24.4095 4.31911 10.0357 3 
24.4084 7.18984 10.0359 3 
25.8433 5.7537 8.60002 3 
27.2781 4.31767 10.0363 3 
27.2779 7.18895 10.0362 3 
25.8438 5.7542 11.4721 3 
2.87071 8.62411 8.60008 3 
2.8711 11.4935 8.60033 3 
1.43575 10.059 10.0363 3 
2.87049 8.62458 11.4721 3 
2.87112 11.4939 11.4724 3 
0.000624831 8.62383 8.6003 3 
0.000650679 11.4935 8.60042 3 
0.000708861 11.4939 11.4724 3 
0.000668659 8.62425 11.4722 3 
5.74167 8.62422 8.59993 3 
5.74231 11.4934 8.60037 3 
4.30643 10.0591 10.0362 3 
7.1779 10.0588 10.0363 3 
5.74123 8.62472 11.472 3 
5.74226 11.4938 11.4724 3 
8.61358 8.62347 8.60046 3 
11.4855 8.62241 8.60151 3 
8.6139 11.4934 8.60063 3 
11.4854 11.4934 8.60117 3 
11.4849 8.6225 11.473 3 
10.0496 10.0582 10.0368 3 
8.61297 8.62383 11.4723 3 
8.6138 11.4938 11.4724 3 
11.4852 11.4937 11.4724 3 
14.3567 8.62201 8.60211 3 
14.3566 11.4934 8.6015 3 
12.921 10.0578 10.0373 3 
15.7923 10.0578 10.0374 3 
14.3566 8.62182 11.4736 3 
14.3565 11.4937 11.4725 3 
17.2279 8.62244 8.60168 3 
20.0998 8.6235 8.6007 3 
17.2279 11.4935 8.60131 3 
20.0994 11.4935 8.60085 3 
18.6637 10.0583 10.0369 3 
17.2284 8.62255 11.4731 3 
20.1003 8.62388 11.4725 3 
17.2279 11.4938 11.4725 3 
20.0995 11.4938 11.4725 3 
22.9717 8.62422 8.60019 3 
22.9711 11.4935 8.60059 3 
21.5355 10.0589 10.0365 3 
22.9722 8.62476 11.4722 3 
22.9711 11.4939 11.4725 3 
24.4069 10.0591 10.0363 3 
25.8426 8.62411 8.60021 3 
25.8422 11.4935 8.60047 3 
27.2776 10.059 10.0363 3 
25.8429 8.6246 11.4722 3 
25.8423 11.4939 11.4725 3 
2.87044 14.3627 8.60036 3 
1.43575 12.9284 10.0365 3 
1.43543 15.7983 10.0365 3 
2.87064 14.3632 11.4726 3 
0.000728042 14.3631 8.60047 3 
0.000766521 14.3636 11.4726 3 
5.74103 14.3623 8.60018 3 
4.30635 12.9282 10.0364 3 
4.30476 15.7972 10.0365 3 
7.17773 12.9284 10.0364 3 
7.17545 15.797 10.0363 3 
5.74134 14.3629 11.4727 3 
8.61268 14.3631 8.59999 3 
11.4846 14.3642 8.6002 3 
10.0493 12.9289 10.0365 3 
10.0476 15.7988 10.0357 3 
8.61303 14.3637 11.4724 3 
11.4849 14.365 11.4718 3 
14.3566 14.3648 8.60071 3 
12.9208 12.9294 10.0366 3 
15.7924 12.9294 10.0366 3 
12.9199 15.8009 10.0352 3 
15.7931 15.8009 10.0353 3 
14.3565 14.3657 11.4713 3 
17.2287 14.3643 8.60032 3 
20.1006 14.3631 8.6002 3 
18.6639 12.929 10.0366 3 
18.6656 15.7989 10.0358 3 
17.2282 14.3651 11.4719 3 
20.1001 14.3638 11.4725 3 
22.9724 14.3624 8.60041 3 
21.5356 12.9284 10.0366 3 
21.5378 15.7971 10.0365 3 
22.972 14.363 11.4728 3 
24.4087 15.7973 10.0367 3 
24.407 12.9282 10.0366 3 
25.843 14.3627 8.60049 3 
27.2777 12.9284 10.0365 3 
27.2781 15.7984 10.0366 3 
25.8429 14.3632 11.4727 3 
2.86955 17.2329 8.6001 3 
2.86958 20.1046 8.59968 3 
0.000807979 20.1054 8.6001 3 
1.43533 18.6695 10.0363 3 
2.8699 17.2335 11.4726 3 
2.86994 20.1052 11.4723 3 
0.000866674 20.1059 11.4722 3 
0.000798895 17.2338 8.60033 3 
0.000842491 17.2343 11.4725 3 
5.73771 17.2304 8.59947 3 
5.73606 20.1011 8.59821 3 
4.30357 18.6677 10.0362 3 
7.16996 18.6635 10.0363 3 
5.73855 17.2315 11.4732 3 
5.73731 20.1026 11.473 3 
8.60844 17.2302 8.5981 3 
11.4818 17.2334 8.59732 3 
8.59627 20.0909 8.59416 3 
11.4689 20.0936 8.58522 3 
10.0415 18.6647 10.0342 3 
8.60973 17.2318 11.4729 3 
11.4831 17.2352 11.4711 3 
8.60044 20.0951 11.4761 3 
11.4757 20.0991 11.472 3 
14.3566 17.2358 8.59956 3 
14.3566 20.1092 8.60052 3 
12.9162 18.6711 10.0315 3 
15.7969 18.6711 10.0316 3 
14.3565 17.2378 11.4691 3 
14.3565 20.106 11.4629 3 
17.2314 17.2334 8.59743 3 
20.1049 17.2303 8.5983 3 
17.2444 20.0936 8.58531 3 
20.1171 20.0909 8.59437 3 
18.6717 18.6647 10.0343 3 
17.2299 17.2352 11.4712 3 
20.1034 17.2318 11.473 3 
17.2373 20.0991 11.472 3 
20.1128 20.0951 11.4762 3 
22.9757 17.2305 8.5997 3 
22.9775 20.1011 8.59842 3 
21.5434 18.6635 10.0364 3 
22.9749 17.2316 11.4733 3 
22.9762 20.1026 11.4731 3 
24.41 18.6677 10.0364 3 
25.844 17.2329 8.60024 3 
25.8441 20.1045 8.59983 3 
27.2783 18.6695 10.0364 3 
25.8437 17.2335 11.4727 3 
25.8437 20.1052 11.4723 3 
2.87027 22.977 8.59952 3 
0.00083117 22.9775 8.60006 3 
1.43587 24.4136 10.036 3 
1.4356 21.5415 10.036 3 
2.87056 22.9776 11.4719 3 
0.000869503 22.9779 11.472 3 
5.73777 22.9748 8.59721 3 
7.17231 24.4111 10.0334 3 
4.30542 24.4131 10.0354 3 
4.30425 21.5402 10.0356 3 
7.16905 21.5356 10.0347 3 
5.73893 22.9762 11.4719 3 
8.59703 22.965 8.58731 3 
11.3816 22.8804 8.50273 3 
10.0142 24.404 10.0263 3 
10.0178 21.516 10.035 3 
8.60248 22.9699 11.4746 3 
11.4399 22.9282 11.5045 3 
12.5191 24.2638 9.88622 5 
14.3567 23.0296 8.65199 5 
16.1941 24.2639 9.88635 5 
14.3565 22.8757 11.4677 5 
15.8232 21.5324 10.014 3 
12.8899 21.5325 10.014 3 
17.3317 22.8804 8.50287 3 
20.1164 22.9649 8.58753 3 
17.2732 22.9282 11.5046 3 
20.1108 22.9698 11.4748 3 
18.6954 21.516 10.0351 3 
18.6992 24.404 10.0264 3 
22.9757 22.9748 8.59748 3 
24.4094 21.5402 10.0357 3 
24.4082 24.4131 10.0356 3 
21.5411 24.411 10.0336 3 
21.5444 21.5355 10.0349 3 
22.9746 22.9761 11.4721 3 
25.8434 22.977 8.59969 3 
25.8431 22.9776 11.472 3 
27.2781 21.5415 10.0361 3 
27.2778 24.4136 10.0361 3 
2.87049 25.8495 8.59993 3 
0.00082028 25.8495 8.60034 3 
1.43575 27.2857 10.0363 3 
2.87084 25.8499 11.4721 3 
0.000875615 25.8498 11.4722 3 
5.73889 25.8496 8.5984 3 
5.74012 25.8499 11.4721 3 
4.30514 27.2859 10.0362 3 
7.173 27.2859 10.0362 3 
8.60253 25.8523 8.59201 3 
11.4401 25.8822 8.55042 3 
10.0407 27.2803 10.0418 3 
8.60917 25.85 11.4722 3 
11.5226 25.85 11.4722 5 
14.3568 28.7041 8.6181 3 
14.3567 25.8453 8.49783 5 
15.7791 27.2487 10.0735 5 
14.3567 25.1011 10.7232 5 
12.9344 27.2487 10.0734 5 
14.3566 26.5988 12.2214 5 
17.2733 25.8821 8.55055 3 
20.1109 25.8522 8.59227 3 
20.1042 25.8499 11.4724 3 
18.6727 27.2803 10.042 3 
17.1907 25.85 11.4724 5 
22.9746 25.8495 8.59866 3 
24.4084 27.2858 10.0363 3 
22.9734 25.8498 11.4723 3 
21.5405 27.2858 10.0364 3 
25.8431 25.8495 8.6001 3 
25.8428 25.8498 11.4722 3 
27.2779 27.2856 10.0364 3 
1.43551 1.44608 12.9085 3 
0.000769482 2.88209 14.3446 3 
2.87018 0.0106021 14.3449 3 
2.8694 2.88302 14.3449 3 
1.43525 1.44641 15.7809 3 
0.000830204 0.0100695 14.3445 3 
4.30407 1.4475 12.9089 3 
7.16887 1.45221 12.9098 3 
4.30301 1.4482 15.7826 3 
7.1654 1.45477 15.7892 3 
5.73581 2.88657 14.3464 3 
5.73759 0.0129069 14.3472 3 
10.0178 1.47187 12.9096 3 
10.006 1.48589 15.8203 3 
8.59608 2.89684 14.3504 3 
11.3815 0.107532 14.4418 3 
11.4688 2.89418 14.3595 3 
8.59687 0.0229009 14.3572 3 
12.89 1.45544 12.9307 3 
15.8233 1.45543 12.9307 3 
14.3566 2.87855 14.3442 3 
12.9312 1.4507 15.7851 3 
15.782 1.45069 15.7852 3 
18.6956 1.47183 12.9097 3 
18.7074 1.48583 15.8203 3 
17.3317 0.107485 14.4419 3 
17.2446 2.89415 14.3595 3 
20.1173 2.89675 14.3505 3 
20.1165 0.0228235 14.3572 3 
21.5446 1.45214 12.9099 3 
24.4095 1.44742 12.909 3 
21.5481 1.45466 15.7892 3 
24.4105 1.44809 15.7826 3 
22.9777 2.88649 14.3464 3 
22.9759 0.0128084 14.3473 3 
27.2781 1.44602 12.9086 3 
25.8441 2.88294 14.345 3 
27.2783 1.44634 15.7809 3 
25.8434 0.0104955 14.345 3 
1.43516 4.31809 12.9084 3 
1.43528 7.1894 12.9083 3 
2.86936 5.75475 14.3446 3 
1.43499 4.31849 15.7809 3 
1.43523 7.1898 15.7806 3 
0.000744705 5.75387 14.3445 3 
7.16976 4.32416 12.9083 3 
4.30331 4.31993 12.9084 3 
4.30456 7.19045 12.9082 3 
7.17528 7.1906 12.9084 3 
4.30263 4.32072 15.782 3 
4.30422 7.19104 15.7811 3 
7.16805 4.32608 15.7853 3 
7.17474 7.19149 15.782 3 
5.73748 5.75719 14.3452 3 
10.0414 4.32302 12.9105 3 
10.0475 7.18873 12.9091 3 
11.4817 5.75418 14.3474 3 
10.0398 4.32657 15.7897 3 
10.0472 7.19005 15.7823 3 
8.60824 5.75734 14.3466 3 
12.9163 4.31661 12.9132 3 
15.797 4.31659 12.9133 3 
12.92 7.18671 12.9096 3 
15.7933 7.18672 12.9096 3 
15.7924 4.31921 15.7828 3 
12.921 4.31922 15.7828 3 
12.9206 7.18831 15.7807 3 
15.7927 7.18833 15.7807 3 
14.3566 5.75183 14.3453 3 
18.672 4.32299 12.9106 3 
18.6658 7.18875 12.9092 3 
17.2316 5.75417 14.3475 3 
18.6736 4.32652 15.7898 3 
18.6661 7.19007 15.7823 3 
20.1051 5.75732 14.3467 3 
21.5437 4.32411 12.9085 3 
21.5381 7.1906 12.9085 3 
24.4089 7.19046 12.9083 3 
24.4102 4.31989 12.9085 3 
22.976 5.75715 14.3452 3 
21.5454 4.32601 15.7853 3 
21.5387 7.1915 15.7819 3 
24.4092 7.19106 15.7811 3 
24.4109 4.32068 15.782 3 
27.2783 4.31806 12.9084 3 
27.2781 7.18939 12.9083 3 
27.2785 4.31849 15.7808 3 
27.2783 7.18981 15.7806 3 
25.8441 5.75475 14.3447 3 
1.43573 10.0594 12.9083 3 
2.87033 8.62504 14.3444 3 
2.87117 11.4943 14.3444 3 
1.43576 10.0599 15.7804 3 
0.000739383 8.62467 14.3444 3 
0.000766335 11.4944 14.3444 3 
4.30628 10.0595 12.9083 3 
7.17768 10.0592 12.9083 3 
5.74229 11.4942 14.3444 3 
4.30625 10.06 15.7805 3 
7.1776 10.0597 15.7805 3 
5.74089 8.62528 14.3446 3 
10.0493 10.0586 12.9084 3 
11.4845 8.62321 14.3446 3 
11.4853 11.4941 14.3437 3 
8.61254 8.62444 14.3448 3 
10.0493 10.0591 15.7801 3 
8.61385 11.4941 14.3441 3 
12.9208 10.0581 12.9084 3 
15.7924 10.0581 12.9084 3 
14.3565 11.494 14.3434 3 
12.9209 10.0587 15.7795 3 
15.7923 10.0587 15.7795 3 
14.3566 8.62268 14.3442 3 
18.664 10.0586 12.9085 3 
17.2278 11.4941 14.3437 3 
20.1008 8.62447 14.3448 3 
17.2287 8.62323 14.3447 3 
20.0994 11.4942 14.3441 3 
18.664 10.0592 15.78 3 
21.5356 10.0593 12.9085 3 
24.4071 10.0596 12.9084 3 
22.9711 11.4943 14.3444 3 
21.5358 10.0598 15.7804 3 
24.4072 10.06 15.7804 3 
22.9725 8.62531 14.3446 3 
27.2777 10.0595 12.9084 3 
25.8431 8.62509 14.3444 3 
25.8423 11.4944 14.3444 3 
27.2778 10.0599 15.7804 3 
1.43587 12.9289 12.9085 3 
1.43561 15.7989 12.9086 3 
1.43599 12.9293 15.7804 3 
1.43579 15.7994 15.7804 3 
2.8709 14.3637 14.3447 3 
0.00081634 14.3641 14.3445 3 
4.30521 15.7979 12.909 3 
4.3065 12.9286 12.9085 3 
7.17791 12.9288 12.9084 3 
7.17618 15.7978 12.9091 3 
5.74175 14.3635 14.3448 3 
4.30577 15.7987 15.7809 3 
4.30674 12.9291 15.7805 3 
7.17822 12.9292 15.7802 3 
7.17706 15.7987 15.781 3 
10.0495 12.9293 12.908 3 
10.0486 15.7995 12.9082 3 
11.4854 14.3652 14.3433 3 
10.0498 12.9296 15.7795 3 
10.0495 15.7999 15.7799 3 
8.61356 14.3642 14.3443 3 
12.9209 12.9297 12.9075 3 
15.7921 12.9298 12.9075 3 
12.9208 15.8014 12.9066 3 
15.7921 15.8014 12.9066 3 
14.3565 14.3656 14.3427 3 
12.921 12.9298 15.7789 3 
15.792 12.9298 15.7788 3 
12.921 15.8009 15.7788 3 
15.7919 15.8009 15.7787 3 
18.6636 12.9294 12.9081 3 
18.6645 15.7996 12.9082 3 
20.0996 14.3643 14.3442 3 
17.2276 14.3653 14.3432 3 
18.6633 12.9296 15.7794 3 
18.6636 15.8 15.7797 3 
21.5354 12.9289 12.9085 3 
21.5371 15.7979 12.9092 3 
24.4083 15.798 12.9091 3 
24.4069 12.9287 12.9086 3 
21.5351 12.9293 15.7801 3 
21.5362 15.7988 15.7808 3 
24.4067 12.9293 15.7804 3 
24.4077 15.7988 15.7808 3 
22.9716 14.3636 14.3448 3 
27.2777 12.9289 12.9086 3 
27.278 15.7989 12.9086 3 
27.2776 12.9294 15.7804 3 
27.2779 15.7994 15.7804 3 
25.8427 14.3638 14.3447 3 
1.43548 18.6701 12.9084 3 
2.87005 20.1058 14.3444 3 
0.000884715 17.2348 14.3444 3 
1.4356 18.6705 15.7802 3 
2.87024 17.2342 14.3448 3 
0.000895269 20.1063 14.3441 3 
4.30412 18.6687 12.9091 3 
7.17166 18.6654 12.9111 3 
4.30476 18.6695 15.7811 3 
7.1739 18.6677 15.783 3 
5.7381 20.104 14.3461 3 
5.73947 17.2326 14.3459 3 
10.0445 18.6667 12.9105 3 
8.61122 17.233 14.3459 3 
11.4808 20.1025 14.3482 3 
10.0473 18.6692 15.7819 3 
8.60455 20.0994 14.3507 3 
11.4848 17.2355 14.3438 3 
12.9201 18.6717 12.9063 3 
15.7928 18.6717 12.9062 3 
14.3564 17.2367 14.3425 3 
12.9208 18.6716 15.7795 3 
15.7921 18.6716 15.7795 3 
14.3565 20.1062 14.3443 3 
17.2322 20.1025 14.3482 3 
18.6686 18.6667 12.9104 3 
20.1019 17.233 14.3458 3 
18.6657 18.6692 15.7818 3 
20.1086 20.0994 14.3507 3 
17.2282 17.2355 14.3437 3 
21.5416 18.6654 12.9111 3 
24.4094 18.6687 12.9091 3 
22.9739 17.2327 14.3458 3 
22.9753 20.104 14.346 3 
21.5394 18.6677 15.7829 3 
24.4088 18.6695 15.781 3 
27.2783 18.6701 12.9084 3 
25.8436 20.1058 14.3444 3 
25.8434 17.2342 14.3447 3 
27.2781 18.6705 15.7802 3 
1.43583 24.414 12.908 3 
1.43562 21.542 12.908 3 
2.87029 22.978 14.3441 3 
1.43556 21.5422 15.7799 3 
1.4356 24.4141 15.7801 3 
0.000902315 22.9782 14.3438 3 
4.30441 21.5411 12.9085 3 
4.30517 24.414 12.9081 3 
7.17048 21.5379 12.9109 3 
7.17296 24.4141 12.9082 3 
4.30451 21.5417 15.7806 3 
7.17332 21.5412 15.7813 3 
4.30431 24.4137 15.7811 3 
5.73859 22.9776 14.3447 3 
7.1704 24.4114 15.7844 3 
10.0406 24.4197 12.9026 3 
10.029 21.5253 12.9228 3 
11.4834 22.9863 14.3362 3 
8.60651 22.9782 14.3442 3 
10.0463 21.5433 15.7792 3 
10.029 24.3997 15.7971 3 
12.9342 24.4513 12.8711 5 
15.7789 24.4513 12.8712 5 
12.9114 21.5315 12.9177 3 
15.8016 21.5315 12.9177 3 
12.9213 21.5481 15.7744 3 
15.7918 21.5481 15.7744 3 
12.9114 24.4048 15.791 3 
15.8017 24.4048 15.7909 3 
14.3565 22.996 14.3265 3 
17.2297 22.9863 14.3362 3 
18.6841 21.5252 12.9228 3 
18.6726 24.4197 12.9027 3 
20.1067 22.9781 14.3442 3 
18.6668 21.5433 15.7791 3 
18.6842 24.3997 15.797 3 
24.4092 21.541 12.9085 3 
21.5404 24.414 12.9082 3 
24.4084 24.4139 12.9082 3 
21.5429 21.5378 12.911 3 
22.9749 22.9775 14.3447 3 
21.54 21.5411 15.7811 3 
24.4091 21.5417 15.7805 3 
21.543 24.4113 15.7843 3 
24.4093 24.4136 15.781 3 
25.8434 22.978 14.3441 3 
27.2779 24.414 12.908 3 
27.2781 21.542 12.908 3 
27.2782 21.5422 15.7799 3 
27.2782 24.4141 15.78 3 
1.43584 27.286 12.9084 3 
2.87049 25.8502 14.3445 3 
1.43555 27.2862 15.7805 3 
0.000892699 25.8501 14.3441 3 
4.30536 27.2866 12.9089 3 
7.1722 27.2888 12.911 3 
5.7388 25.8502 14.346 3 
4.30408 27.2866 15.7819 3 
7.16885 27.2876 15.7866 3 
10.0141 27.296 12.9182 3 
8.60242 25.8477 14.3524 3 
11.44 25.8179 14.3941 3 
10.0178 27.2874 15.8063 3 
14.3566 28.6704 14.2928 5 
12.519 27.4361 13.0584 5 
16.1943 27.4362 13.0585 5 
12.8899 27.3085 15.7899 3 
15.8233 27.3085 15.7899 3 
14.3566 25.8547 14.4468 5 
18.6992 27.2959 12.9183 3 
17.2732 25.8179 14.3941 3 
18.6956 27.2873 15.8063 3 
20.1109 25.8476 14.3524 3 
22.9747 25.8501 14.346 3 
21.5412 27.2887 12.9111 3 
24.4082 27.2865 12.909 3 
21.5446 27.2875 15.7866 3 
24.4095 27.2865 15.7818 3 
27.2779 27.286 12.9084 3 
25.8432 25.8502 14.3444 3 
27.2782 27.2861 15.7805 3 
1.43502 1.44633 18.6531 3 
2.86889 2.88336 17.2179 3 
2.8691 2.88291 20.0898 3 