ITEM: TIMESTEP
80044
ITEM: NUMBER OF ATOMS
18
ITEM: BOX BOUNDS pp pp pp
0.0000000000000000e+00 2.8712000000000000e+01
0.0000000000000000e+00 2.8712000000000000e+01
0.0000000000000000e+00 2.8712000000000000e+01
ITEM: ATOMS x y z c_cna 
14.3567 0.112305 11.4769 5 
12.5191 24.2638 9.88622 5 
14.3567 23.0296 8.65199 5 
16.1941 24.2639 9.88635 5 
14.3565 22.8757 11.4677 5 
11.5226 25.85 11.4722 5 
14.3567 25.8453 8.49783 5 
15.7791 27.2487 10.0735 5 
14.3567 25.1011 10.7232 5 
12.9344 27.2487 10.0734 5 
14.3566 26.5988 12.2214 5 
17.1907 25.85 11.4724 5 
12.9342 24.4513 12.8711 5 
15.7789 24.4513 12.8712 5 
14.3566 28.6704 14.2928 5 
12.519 27.4361 13.0584 5 
16.1943 27.4362 13.0585 5 
14.3566 25.8547 14.4468 5 
ITEM: TIMESTEP
80045
ITEM: NUMBER OF ATOMS
18
ITEM: BOX BOUNDS pp pp pp
0.0000000000000000e+00 2.8712000000000000e+01
0.0000000000000000e+00 2.8712000000000000e+01
0.0000000000000000e+00 2.8712000000000000e+01
ITEM: ATOMS x y z c_cna 
14.3567 0.112305 11.4769 5 
12.5191 24.2638 9.88622 5 
14.3567 23.0296 8.65199 5 
16.1941 24.2639 9.88635 5 
14.3565 22.8757 11.4677 5 
11.5226 25.85 11.4722 5 
14.3567 25.8453 8.49783 5 
15.7791 27.2487 10.0735 5 
14.3567 25.1011 10.7232 5 
12.9344 27.2487 10.0734 5 
14.3566 26.5988 12.2214 5 
17.1907 25.85 11.4724 5 
12.9342 24.4513 12.8711 5 
15.7789 24.4513 12.8712 5 
14.3566 28.6704 14.2928 5 
12.519 27.4361 13.0584 5 
16.1943 27.4362 13.0585 5 
14.3566 25.8547 14.4468 5 
