ITEM: TIMESTEP
80000
ITEM: NUMBER OF ATOMS
2001
ITEM: BOX BOUNDS pp pp pp
0.0000000000000000e+00 2.8712000000000000e+01
0.0000000000000000e+00 2.8712000000000000e+01
0.0000000000000000e+00 2.8712000000000000e+01
ITEM: ATOMS x y z 
1.43054 1.60548 1.5107 
2.78287 2.80892 2.83036 
0.0432406 3.09939 2.93246 
0.0176752 0.0878519 2.7521 
2.8086 0.0669215 2.80406 
0.056502 3.02578 0.13955 
2.77128 2.72049 0.0515149 
4.28741 1.49283 1.49925 
7.185 1.63713 1.47508 
5.66884 2.94229 3.01889 
5.66163 0.00995182 2.79876 
9.99378 1.47587 1.4085 
10.1511 1.51016 4.0429 
8.57683 2.88011 2.81725 
11.6097 3.01947 2.77761 
11.4094 2.74246 0.101304 
11.5705 0.104378 0.208631 
8.54697 0.135893 0.167742 
13.131 1.4442 1.56598 
15.7039 1.45112 1.33776 
14.4312 3.12664 2.82445 
14.5263 0.0836274 2.96413 
14.332 2.95681 0.0753659 
18.6141 1.38375 1.32037 
17.2431 2.85034 2.72697 
20.2344 2.69294 2.81617 
17.2714 0.0662649 2.84524 
20.1338 0.0619355 2.70812 
22.9587 2.7436 2.97612 
24.57 1.54787 1.29729 
21.6314 1.38924 1.46196 
22.9744 0.0117198 2.91542 
23.0547 2.82475 0.0459363 
27.3346 1.64678 1.43801 
25.7379 2.87587 2.95141 
25.8577 0.0164784 2.94209 
25.843 0.0727371 0.0796557 
1.61766 4.38178 1.46802 
1.58489 7.25884 1.47358 
3.00116 5.67043 2.94039 
2.78691 5.69798 0.0319957 
0.0319371 5.80612 2.83019 
7.07872 4.39892 1.50105 
4.36486 4.40014 1.35331 
4.4056 7.07452 1.55771 
7.23668 7.13409 1.25657 
5.68756 5.64893 2.92758 
10.023 4.41309 1.36186 
10.0923 7.30662 1.20433 
8.63811 5.80806 2.6548 
11.7053 5.92746 2.92132 
11.5063 5.7034 0.0473337 
12.8818 4.31359 1.33108 
15.8529 4.31254 1.50864 
13.1056 7.46857 1.48522 
15.8612 7.19252 1.40182 
14.2827 5.9259 2.86299 
18.7772 4.27166 1.51369 
18.8125 7.22661 1.4284 
17.1066 5.72653 2.79242 
20.1189 5.79486 2.93825 
17.1933 5.68907 0.0963379 
21.6535 4.29369 1.51115 
21.7272 7.24024 1.45806 
22.951 5.58119 3.07091 
24.2286 7.16982 1.37601 
24.3451 4.33887 1.48101 
27.3167 4.28529 1.34485 
27.139 7.14415 1.54311 
25.7313 5.73956 2.92935 
28.6896 5.65563 0.273997 
25.8803 5.76585 0.116342 
1.35919 10.0222 1.3908 
3.00869 8.62291 2.86186 
2.88255 11.3533 2.89523 
0.0242155 8.51282 2.81553 
4.24025 10.1216 1.33777 
7.02346 10.0913 1.50126 
5.67255 8.524 2.97205 
5.53938 11.2934 3.01458 
5.73906 8.50149 0.102239 
5.73564 11.526 0.0163579 
9.94831 9.97905 1.38144 
8.5418 8.67154 2.83211 
11.3349 8.60023 2.92049 
8.42119 11.5571 2.74772 
11.4385 11.3512 2.87905 
8.55201 11.4997 0.0455428 
12.859 10.0886 1.38838 
15.9566 10.1269 1.49895 
14.6937 8.8175 2.98045 
14.3945 11.2574 2.70769 
14.5433 8.73706 0.0180521 
18.6649 10.2816 1.58929 
17.2907 8.65193 2.73326 
20.2072 8.71874 2.79027 
17.393 11.6055 2.92579 
20.1046 11.3848 2.7454 
17.4072 8.67254 0.0949682 
20.1873 11.4845 0.224654 
20.1239 8.75718 0.0476701 
21.6076 10.2872 1.43379 
23.0003 8.61261 2.7234 
22.9213 11.4437 2.89998 
24.4945 9.9907 1.16573 
22.9573 8.65144 0.0165172 
28.5585 11.4218 2.90599 
27.2901 9.97936 1.35171 
25.6863 8.69735 2.79956 
25.813 11.4561 2.54089 
1.38499 12.9361 1.3619 
1.49686 15.7347 1.38431 
2.93556 14.3838 2.57195 
0.0154177 14.4471 0.114502 
4.20249 15.7793 1.32292 
4.13776 12.9542 1.30292 
7.00289 12.9707 1.46778 
7.15796 15.7088 1.55063 
5.58685 14.3551 2.92739 
10.0503 12.9653 1.37612 
10.0388 15.8444 1.4831 
8.63233 14.317 2.75219 
11.5413 14.3322 2.94521 
11.5004 14.2895 0.0543159 
8.5757 14.3009 0.0270778 
12.9594 12.9974 1.43163 
15.9509 12.8356 1.38022 
13.0358 16.0045 1.45954 
15.8534 15.8521 1.60722 
14.5234 14.2314 2.7837 
14.4465 14.4219 0.0638931 
18.5582 12.9714 1.3832 
18.8411 15.8473 1.39269 
17.103 14.3315 2.74573 
20.0887 14.404 2.68715 
20.0717 14.2391 0.0344415 
21.7128 13.0181 1.60207 
21.4828 15.783 1.48476 
23.1218 14.4109 2.96787 
24.2928 15.7343 1.4208 
24.4365 12.7941 1.34364 
22.9783 14.4171 0.185472 
28.6726 14.3586 2.79737 
27.3049 12.9831 1.45262 
27.1463 15.811 1.21868 
25.886 14.297 2.86259 
27.1927 15.8862 4.09763 
25.7964 14.2562 0.0376309 
1.32767 18.7125 1.24054 
2.85335 17.2049 2.78968 
2.74642 19.9523 2.89154 
0.0998287 19.9181 2.93974 
4.23032 18.5612 1.40719 
7.28328 18.651 1.34092 
5.76602 17.2773 2.84702 
5.82621 20.0409 2.71454 
10.1397 18.6979 1.36314 
8.77459 17.2531 2.73874 
11.629 17.2868 2.85238 
8.69849 20.108 2.96064 
11.4406 20.0248 2.72115 
13.055 18.681 1.15133 
15.782 18.6571 1.469 
14.4094 17.1948 2.86954 
14.3149 19.9776 2.82266 
18.7431 18.6233 1.30721 
17.3645 17.1384 2.97021 
20.0383 17.2774 2.93016 
17.2729 19.9902 2.79611 
19.97 20.0992 2.85086 
20.1537 17.189 0.0133555 
21.6149 18.8065 1.41263 
24.5215 18.6504 1.36408 
22.9766 17.1315 2.76975 
23.1276 20.0989 2.83893 
22.9289 20.1332 0.090271 
22.924 17.2062 0.0637852 
28.6561 17.3911 2.56277 
27.1856 18.8239 1.34359 
25.8144 17.3786 2.76769 
25.8208 20.2286 2.89662 
28.6054 20.0871 0.0810721 
1.52415 21.4371 1.47129 
2.96198 23.0881 2.93235 
1.46116 24.399 1.61916 
0.155088 22.8855 0.1701 
0.018507 22.7747 2.91125 
2.95887 22.9963 0.0115696 
4.60852 24.4476 1.65064 
4.21303 21.2273 1.44192 
7.36507 21.4347 1.52965 
5.82883 22.75 2.83817 
7.36639 24.4607 1.59702 
5.70585 22.8046 0.285148 
8.59647 22.9298 0.0567879 
10.1398 21.5263 1.47091 
8.63921 22.8255 2.71938 
11.6311 23.0245 2.84943 
10.0255 24.3808 1.42967 
11.4953 23.2017 0.0155231 
13.1106 21.5817 1.25951 
15.8436 21.6931 1.39696 
14.2329 22.9817 2.96112 
16.0217 24.3323 1.40982 
14.5591 23.1995 0.0202177 
13.045 24.3202 1.56705 
18.764 21.4635 1.55563 
17.4685 22.8033 2.89771 
20.1725 22.9035 2.88956 
18.8134 24.2414 1.50809 
17.3349 22.8814 0.152493 
20.2247 22.8228 0.173642 
21.6092 21.3719 1.54183 
24.426 21.6476 1.41115 
23.1041 23.0089 2.84293 
24.4277 24.3777 1.44022 
21.6685 24.3746 1.54311 
27.2295 21.492 1.49419 
25.841 23.0812 3.02782 
27.3415 24.2406 1.54839 
25.852 23.0818 0.10865 
2.96094 25.706 0.191696 
1.59299 27.1841 1.48732 
2.88979 25.6734 2.85396 
0.146984 25.851 3.12618 
2.97589 28.6083 0.140937 
0.267266 28.6925 0.230169 
4.27777 27.197 1.38957 
7.26386 27.2821 1.50153 
5.68819 25.8239 2.98297 
5.908 25.8613 0.21152 
8.64422 28.6737 2.97654 
11.5269 28.6606 2.94499 
9.94528 27.2795 1.34708 
8.75406 25.8528 2.91069 
11.5568 25.981 2.70916 
11.5889 25.8892 0.0693943 
12.994 27.453 1.46386 
15.9511 27.3089 1.4284 
14.4218 25.8221 2.81346 
14.417 25.947 0.0399072 
18.7757 27.1527 1.23358 
17.3252 25.6377 2.93255 
20.2651 25.77 2.8393 
20.1379 25.7028 0.0491136 
20.2039 28.5932 0.138025 
21.6921 27.082 1.3273 
22.9345 25.937 2.72504 
24.4847 27.3298 1.43044 
28.6822 25.7762 0.136128 
27.4555 27.2982 1.56469 
26.0577 25.8648 2.91715 
25.8056 25.8081 0.114119 
1.38788 1.44542 4.29295 
1.51099 1.31651 7.07535 
2.80554 2.99007 5.80351 
2.98115 0.126114 5.64878 
0.0367166 2.86222 5.85114 
4.18633 1.44028 4.20006 
7.2198 1.47826 4.22956 
4.19886 1.58724 7.0553 
7.21807 1.33754 7.18682 
5.59059 2.70901 5.68054 
5.77367 0.18156 5.41018 
10.1722 1.50465 7.03742 
8.5088 2.93798 5.64429 
11.5569 2.82301 5.68181 
8.97363 0.0344194 5.78467 
13.1023 1.4197 4.30019 
16.0367 1.429 4.19346 
12.9754 1.29429 7.08325 
15.7877 1.40365 7.05723 
14.5565 2.86743 5.59617 
18.7883 1.48838 4.47089 
18.7331 1.31865 7.09313 
17.2571 3.07318 5.75295 
20.167 3.00194 5.81543 
21.4664 1.39282 4.30458 
24.3124 1.54216 4.37019 
21.4843 1.58542 7.25238 
23.0193 2.88843 5.88009 
24.4302 1.27946 6.97388 
27.313 1.32485 4.39612 
27.3417 1.2792 7.09845 
26.0244 2.78149 6.00289 
25.8334 0.0157506 5.71483 
1.40561 4.43028 4.39098 
1.46673 6.99911 4.22706 
4.08868 4.35415 4.39824 
1.42062 4.42232 7.2564 
1.54788 7.25395 7.03043 
2.90046 6.05085 5.8518 
4.32689 7.24603 4.26802 
7.13112 4.34865 4.21785 
7.19726 7.23295 4.26863 
4.26432 7.33893 7.02882 
4.25889 4.45664 7.1675 
7.07464 4.29791 7.16755 
5.7597 5.67296 5.53379 
6.94367 7.04356 7.28127 
9.92141 4.28542 4.12046 
9.92342 7.20988 4.25559 
9.90399 4.29682 7.05183 
8.51256 5.94032 5.67411 
10.0741 6.95345 7.14087 
11.3363 5.614 5.62915 
12.9588 4.25845 4.30403 
15.8209 4.37024 4.44874 
13.1767 7.28077 4.28349 
15.8321 7.41643 4.30497 
12.851 4.31512 7.10668 
15.8311 4.44965 7.22873 
12.9414 7.13215 7.15192 
14.359 5.76529 5.70962 
15.7906 7.2931 7.18552 
18.6681 4.38526 4.32596 
18.6496 7.24265 4.22148 
18.6584 4.39179 7.08803 
17.0528 5.94269 5.71855 
18.731 7.19307 7.24913 
20.1129 5.82078 5.81785 
21.386 4.23106 4.32329 
21.5437 7.22695 4.23478 
24.2577 7.2035 4.25828 
24.3094 4.16914 4.40729 
21.4807 4.47076 7.14573 
24.4693 4.3237 7.07572 
21.4827 7.17704 7.19244 
23.0116 5.85756 5.76019 
24.4569 7.03184 7.23439 
27.278 4.31436 4.39454 
27.2999 7.09132 4.36157 
28.7053 5.62225 5.90205 
27.1672 4.43591 7.29114 
25.8194 5.73853 5.57776 
26.9661 7.15622 7.23696 
1.22766 9.90346 4.13714 
1.47817 10.2125 7.16438 
2.74402 8.6771 5.63354 
2.68579 11.4477 5.61519 
4.40619 10.0084 4.51537 
7.00702 10.0982 4.51628 
4.23365 10.0041 7.07247 
5.84556 8.51158 6.00581 
6.9959 10.1197 7.08901 
5.74537 11.6029 5.79805 
9.8603 10.2094 4.1298 
8.59503 8.63345 6.07216 
10.1712 10.0179 7.059 
11.4837 8.50004 5.81057 
8.78249 11.2802 5.72194 
11.4847 11.2996 5.5274 
12.9158 9.89994 4.10547 
16.0746 9.97495 4.42347 
12.9504 9.9596 7.2432 
14.252 8.64242 5.72536 
15.819 9.98754 7.29896 
14.3805 11.2914 5.61667 
18.9214 9.98555 4.32115 
20.1584 8.69799 5.68969 
17.4001 8.59102 5.83143 
18.7027 10.1317 7.19744 
17.1272 11.475 5.87223 
20.0807 11.5175 5.7479 
21.7514 10.0741 4.28891 
24.4359 10.0612 4.30849 
21.5019 9.93912 7.16557 
22.9814 8.51573 5.8535 
22.9777 11.4498 5.618 
24.2879 9.93447 7.13118 
27.1407 9.91612 4.14196 
28.4747 8.51941 5.80203 
28.6254 11.5637 5.73813 
25.9384 8.65953 5.51682 
27.0808 10.0976 7.11889 
26.0038 11.4533 5.55166 
1.41491 13.0667 4.30317 
1.16011 15.7493 4.19287 
4.06689 15.7201 4.16334 
1.37781 12.8493 7.24654 
1.26553 15.8512 7.31489 
2.92663 14.3283 5.70257 
0.0377332 14.5238 5.82299 
4.31643 12.7777 4.34865 
7.14757 12.6843 4.399 
7.17615 15.67 4.36017 
4.21927 12.8279 7.07447 
4.33484 15.9256 7.26063 
7.21622 13.0067 7.24829 
5.76065 14.3644 5.91092 
7.18577 15.9788 7.28889 
9.94803 12.8761 4.40103 
9.87778 15.6903 4.2281 
9.8823 12.7344 7.00057 
8.55771 14.3678 5.64236 
9.96204 15.7816 7.08932 
11.4037 14.4162 5.80511 
12.9569 12.9003 4.18214 
15.694 12.8876 4.45405 
12.8404 15.7234 4.29288 
15.8054 15.7742 4.28179 
12.8612 12.6858 6.90271 
15.7758 12.6975 7.16623 
12.9518 15.8398 7.07039 
14.3024 14.3319 5.70579 
15.6879 15.7402 7.41885 
18.6705 12.9555 4.42608 
18.7242 15.6276 4.44667 
18.5957 13.0313 7.17664 
17.2272 14.3004 5.95664 
18.5658 15.946 7.13375 
20.1009 14.4934 5.79914 
21.4046 12.9807 4.14365 
21.5783 15.7823 4.12313 
24.4327 15.8466 4.20862 
21.6416 12.996 6.9013 
21.7101 15.9184 7.19091 
22.9962 14.3886 5.50244 
24.4084 12.7912 7.10699 
24.4077 15.7395 6.90586 
24.7314 12.8625 4.13645 
27.4271 12.9375 4.40999 
27.1881 13.0134 7.08506 
25.8651 14.3881 5.65456 
27.1612 15.5998 7.1977 
1.46004 18.5273 4.37298 
1.27002 18.6838 7.22416 
2.64116 16.9077 5.71802 
2.86997 19.9472 5.9841 
0.111115 20.0534 5.95634 
4.27989 18.8049 4.18704 
7.14393 18.6898 4.40693 
4.50171 18.4983 7.11102 
5.52896 17.2348 5.64279 
7.15676 18.886 7.02823 
5.75636 20.1316 5.78049 
10.0359 18.7324 4.13729 
8.55429 17.0705 5.59767 
10.0152 18.5502 7.11437 
11.5354 17.4728 5.74001 
8.78721 20.007 5.71323 
11.5935 20.0282 5.66006 
12.9045 18.5788 4.18759 
15.9409 18.515 4.28781 
13.0032 18.6956 7.30779 
14.3404 17.3778 5.81907 
15.6695 18.6706 7.19088 
14.4022 20.0011 5.78587 
18.6194 18.5819 4.21104 
17.2414 17.2641 5.74071 
18.6083 18.7743 7.12892 
20.0873 17.3276 5.54967 
17.2535 20.1565 5.66026 
20.1899 20.1278 5.72187 
21.5255 18.7751 4.21112 
24.4914 18.5997 4.41228 
21.5505 18.5763 7.30927 
22.8907 17.2999 5.68725 
22.8105 19.9371 5.67218 
24.1326 18.7566 7.27369 
27.3194 18.5659 4.37402 
28.4968 17.1396 5.91281 
26.0112 17.3456 5.90056 
27.0919 18.8169 7.31573 
25.7211 20.1267 5.9202 
1.43491 21.4495 4.35265 
1.38104 24.2387 4.38422 
1.51264 21.5222 7.13259 
2.83331 22.8435 5.75373 
1.5819 24.2922 7.02851 
4.18051 21.4381 4.16103 
4.35412 24.5092 4.2601 
7.08368 21.4924 4.28836 
7.36253 24.4163 4.28427 
4.39393 21.3728 7.17291 
7.32921 21.6554 7.14702 
5.79579 22.9887 5.74033 
7.3055 24.2502 7.14964 
4.37776 24.289 6.93841 
10.419 21.6087 4.27863 
10.0234 24.4444 4.13444 
10.0819 21.5638 7.0131 
8.76518 22.9771 5.60097 
11.4116 23.0441 5.73227 
10.0627 24.3484 7.29708 
12.9322 21.176 4.13196 
15.7709 21.3847 4.17125 
15.8333 24.2685 4.24269 
12.8281 24.3559 4.20047 
12.9374 21.6238 6.84131 
15.8742 21.389 7.01592 
14.4007 22.9469 5.5723 
13.0381 24.3942 7.08006 
16.0085 24.3936 7.17313 
18.7913 21.4773 4.45921 
18.8498 24.3587 4.30247 
18.7494 21.4578 7.15324 
17.3111 22.9783 5.58427 
20.1287 22.983 5.65421 
18.729 24.3607 7.20742 
21.5178 21.5381 4.26596 
24.524 21.5482 4.44282 
24.3875 24.3931 4.29938 
21.739 24.5137 4.28125 
21.5939 21.5737 7.23407 
23.0578 22.9438 5.5105 
24.5002 24.3883 6.86646 
24.2764 21.5801 7.2681 
21.7521 24.3706 6.80678 
27.3359 21.4278 4.34969 
27.4408 24.258 4.35509 
28.6253 22.8087 5.85291 
27.3941 21.4486 7.25641 
25.975 22.7693 5.9193 
27.4152 24.2154 7.42728 
1.5329 27.2407 4.35694 
0.135217 28.6798 5.58413 
1.32444 27.094 7.17151 
2.93648 25.8977 5.81019 
0.0067144 25.6355 5.79327 
4.24358 27.3428 4.34487 
7.16697 27.3457 4.21003 
4.4538 27.4669 7.05114 
5.80459 25.8011 5.87759 
7.36935 27.4177 7.13191 
10.1694 27.1462 4.19871 
11.5846 28.5674 5.57438 
8.52987 25.931 5.63141 
10.1502 27.1816 7.07535 
11.5415 25.9303 5.66676 
13.1942 27.2484 4.28093 
15.9007 27.2534 4.10664 
14.6047 28.6077 5.61607 
13.1211 27.2257 7.1173 
14.7994 25.6867 5.64181 
15.9298 27.1691 7.22867 
18.7466 27.2565 4.13232 
17.2816 28.5905 5.79111 
20.0321 28.6007 5.76602 
17.5222 25.812 5.49767 
18.693 27.2111 7.25438 
20.3392 25.8413 5.74683 
21.5346 27.2896 4.15962 
24.4165 27.1889 4.11573 
22.8901 28.6352 5.6596 
21.4859 27.3586 7.02193 
23.0534 25.9949 5.53223 
24.4617 27.2507 7.01722 
27.328 27.3454 4.14634 
26.0041 25.8231 5.63702 
27.4504 26.9954 7.17186 
2.73433 2.94642 8.60981 
2.90031 0.0611975 8.45378 
1.34101 1.39673 10.1041 
2.9641 2.86664 11.6265 
0.0520938 2.76259 11.383 
5.66979 2.94027 8.6003 
5.58184 0.0825699 8.58165 
4.16179 1.38431 10.0146 
6.9449 1.4633 10.0031 
5.77805 2.91146 11.4117 
5.72073 0.0475509 11.3358 
8.52912 2.73894 8.51823 
11.6736 2.85271 8.50662 
8.87858 0.0444329 8.67887 
10.2213 1.54175 9.96531 
8.50846 2.83933 11.4463 
11.3731 2.88534 11.4476 
14.5147 2.91803 8.42979 
14.3969 0.169989 11.4895 
12.8743 1.47764 10.0673 
15.8946 1.40508 9.9392 
14.3346 2.7932 11.3454 
17.1643 3.00403 8.61173 
20.1809 3.03004 8.60075 
20.1132 0.135329 8.59967 
17.4075 0.0520046 11.223 
18.6469 1.41568 10.0608 
17.3361 2.96338 11.5589 
20.1449 2.84885 11.4357 
23.1961 2.74589 8.58563 
21.433 1.46928 9.99566 
22.9265 2.67643 11.609 
24.4127 1.17127 10.1286 
28.652 2.88409 8.4439 
25.9085 2.75218 8.6189 
28.6369 0.0391329 8.56527 
27.2338 1.49774 9.91257 
25.8509 2.67564 11.5758 
2.87757 5.7568 8.63031 
1.44073 4.25778 10.1566 
1.39632 7.16431 10.1155 
2.90111 5.79698 11.5637 
5.73964 5.59133 8.70421 
4.11735 4.29501 10.1417 
4.17705 7.21656 9.94621 
7.34992 4.33193 10.1152 
6.97245 7.29395 10.087 
5.77691 5.6918 11.4968 
8.4842 5.79634 8.31855 
11.353 5.65954 8.46846 
9.85799 4.12321 9.94029 
9.86479 7.17497 9.97546 
8.52001 5.74507 11.3979 
11.4878 5.56522 11.3742 
14.2735 5.68543 8.72621 
13.0242 4.11757 9.95054 
15.828 4.22034 10.1904 
12.5776 7.21892 10.0847 
15.9381 7.22066 10.0339 
14.1705 5.74799 11.3143 
17.3677 5.73758 8.64674 
20.2655 5.90172 8.87916 
18.662 4.40759 10.154 
18.6255 7.16892 10.1352 
17.2128 5.76676 11.576 
20.2088 5.6959 11.5074 
23.1793 5.62429 8.56148 
21.5197 4.24464 10.2302 
21.6768 7.21222 10.0614 
23.1378 5.71997 11.5281 
24.4308 4.15092 10.071 
24.5339 7.10361 10.0238 
28.6422 5.78813 8.73007 
25.8989 5.68663 8.65625 
28.688 5.78562 11.5934 
27.3468 4.11473 10.23 
27.3846 7.19616 10.1798 
25.8925 5.68141 11.4848 
2.68266 8.54263 8.60616 
2.88574 11.3961 8.65729 
1.24833 10.0559 10.0455 
2.80117 8.61669 11.4746 
2.78943 11.4622 11.3229 
5.72115 8.69429 8.65977 
5.7541 11.6097 8.64623 
4.30231 9.9137 10.0119 
7.2788 10.0107 9.88134 
5.65884 8.63732 11.4956 
5.58274 11.3208 11.4194 
8.61176 8.69492 8.57556 
11.5239 8.51367 8.51291 
8.405 11.4041 8.44964 
11.5331 11.4697 8.53378 
11.3589 8.45695 11.4652 
10.1882 9.93848 9.92928 
8.46684 8.81399 11.5912 
8.71198 11.4727 11.3544 
11.2352 11.5066 11.3122 
14.2326 8.42591 8.61509 
14.2951 11.5335 8.55345 
12.8874 10.1695 10.1073 
15.5743 10.1615 10.0697 
14.3808 8.59573 11.5279 
14.1994 11.5227 11.4896 
17.2415 8.63131 8.63543 
20.0358 8.63029 8.63831 
17.2642 11.4289 8.74218 
19.9648 11.5252 8.3972 
18.5932 9.93347 10.1406 
17.1563 8.6072 11.6012 
20.0674 8.554 11.5423 
17.2136 11.5187 11.4742 
20.0063 11.5881 11.2251 
22.9442 8.58372 8.57694 
22.8153 11.374 8.52754 
21.4962 10.0153 10.1317 
23.0085 8.71362 11.413 
22.9957 11.3832 11.5093 
24.5572 10.0495 10.0277 
28.5038 8.62236 8.53747 
28.5792 11.622 8.66841 
25.6927 8.66478 8.42339 
25.7653 11.4028 8.63988 
28.6523 11.4635 11.6561 
28.6424 8.65156 11.6644 
27.2369 10.0781 10.0182 
25.8118 8.57143 11.3133 
25.9401 11.473 11.444 
2.77612 14.3831 8.59749 
1.23822 12.9457 10.1095 
1.40364 15.8134 10.1806 
2.77668 14.3639 11.4075 
5.81653 14.4133 8.51265 
4.25958 13.1043 9.83221 
4.15967 15.8673 10.0346 
7.22054 13.0737 9.96988 
7.31398 15.7302 10.194 
5.63267 14.247 11.471 
8.5641 14.4632 8.53037 
11.3171 14.1846 8.3867 
9.80717 12.9564 9.71709 
10.056 15.7571 10.2557 
8.61142 14.0348 11.5294 
11.4049 14.2532 11.4345 
14.1903 14.3859 8.57665 
12.83 12.9237 9.89091 
15.7847 12.9947 9.92444 
12.7692 15.8417 9.98421 
15.7234 15.7988 10.0675 
14.2355 14.4094 11.5913 
17.1179 14.3482 8.5433 
19.965 14.4467 8.71941 
18.5686 12.9104 9.96459 
18.4754 15.8921 10.1266 
17.0904 14.3915 11.5648 
19.9462 14.3269 11.3157 
22.8179 14.4372 8.47615 
21.4763 12.8841 9.84454 
21.4863 15.8242 9.99938 
22.8177 14.2799 11.5651 
24.3772 15.7186 10.0685 
24.1574 12.9642 9.96479 
28.595 14.296 8.58793 
25.7893 14.42 8.71443 
28.6887 14.2564 11.4545 
27.0652 12.9164 10.0025 
27.3577 15.778 10.0584 
25.7647 14.3109 11.4903 
2.95176 17.238 8.56633 
3.0449 20.1913 8.80171 
0.0926386 20.2723 8.83258 
1.58069 18.576 10.0642 
2.78768 17.2959 11.5492 
2.89024 19.871 11.4576 
0.1447 20.1208 11.5468 
5.92572 17.2063 8.697 
5.88923 20.003 8.61637 
4.4193 18.5565 10.0767 
7.29701 18.8077 10.014 
5.79376 17.3883 11.5314 
5.67109 20.1425 11.7364 
8.66852 17.1813 8.65591 
11.5487 17.1333 8.49547 
8.78274 20.0915 8.41942 
11.4823 20.1932 8.44136 
9.97292 18.6864 10.0881 
8.44251 17.4554 11.5693 
11.2802 17.284 11.5634 
8.48185 20.3135 11.4763 
11.3431 20.321 11.4916 
14.4444 17.1942 8.7461 
14.4206 20.0827 8.57099 
12.8452 18.6792 10.0884 
15.7324 18.7786 10.1068 
14.1763 17.2128 11.4156 
14.1922 19.8793 11.6738 
17.2143 17.4446 8.57639 
19.9873 17.2703 8.51567 
17.2531 20.0079 8.48017 
20.0603 20.1546 8.67933 
18.6891 18.7589 10.1018 
16.9792 17.2063 11.4735 
20.0435 17.1465 11.3883 
17.2496 20.076 11.3564 
20.0153 20.1137 11.6173 
23.0524 17.1976 8.68473 
23.0473 20.1746 8.84232 
21.597 18.4914 9.9591 
22.8824 17.1184 11.4028 
23.0423 19.867 11.6856 
24.3081 18.3832 10.0425 
28.5885 17.2663 8.69061 
25.9363 17.141 8.56997 
25.809 20.0559 8.78289 
28.6442 17.2196 11.4644 
27.3999 18.6481 10.3591 
25.9678 17.1127 11.4616 
25.9604 20.0904 11.4255 
2.89072 23.0498 8.44132 
0.196726 22.9248 8.647 
1.63377 24.5663 10.0381 
1.49801 21.6055 10.1671 
2.81553 23.2739 11.4617 
5.80195 22.9848 8.38585 
7.20377 24.4004 9.81809 
4.47031 24.4317 9.73873 
4.28799 21.7338 10.1259 
7.04076 21.844 10.0348 
5.77906 23.1324 11.3437 
8.80049 22.6353 8.43577 
11.5053 22.871 8.38385 
9.92962 24.518 9.85746 
9.72812 21.4365 10.157 
8.56783 23.0378 11.4785 
11.5035 22.9111 11.5848 
12.2745 24.2745 9.87209 
14.2232 23.0043 8.48098 
16.0181 24.0656 9.74714 
14.3913 22.7966 11.4574 
15.8628 21.5132 9.97623 
12.8891 21.5643 9.92131 
17.3202 22.7487 8.37448 
20.1753 23.1189 8.4559 
17.1962 23.0113 11.5397 
20.1278 22.8622 11.3439 
18.6974 21.6819 9.89765 
18.6783 24.3044 10.0875 
22.8282 22.9994 8.65293 
24.3863 21.5743 10.0988 
24.3515 24.5184 9.81333 
21.5181 24.2739 10.1537 
21.6125 21.4347 10.16 
23.015 22.909 11.4275 
25.7263 22.7996 8.59877 
25.8152 23.0263 11.2785 
27.3344 21.5653 10.1391 
27.4379 24.2246 9.96271 
28.6379 22.9977 11.4127 
3.1183 26.004 8.45741 
0.353082 25.6429 8.6786 
0.0323172 28.5885 11.3681 
2.74765 28.6722 11.515 
1.43882 27.2209 9.95226 
2.90134 25.7813 11.3556 
5.80512 25.8989 8.53314 
5.55362 25.9127 11.2303 
4.28844 27.393 10.0262 
7.18023 27.3581 9.92405 
11.6467 28.5213 8.52089 
8.56222 25.8244 8.42554 
11.3877 25.8705 8.53906 
9.9996 27.1071 9.92279 
8.56729 25.7763 11.2744 
11.4132 25.7633 11.5452 
8.62175 28.6497 11.2765 
11.3426 28.6812 11.5716 
14.3867 28.6396 8.70816 
14.2378 25.7142 8.60374 
15.6859 27.0882 10.1253 
14.2273 24.9904 10.8003 
12.9148 27.3515 10.1726 
17.0728 28.7052 8.46618 
17.2443 25.7735 8.63305 
20.0786 25.7294 8.79047 
20.023 28.711 11.3617 
20.1069 25.8262 11.487 
18.6714 27.2545 9.9031 
17.2366 25.8529 11.4842 
22.9344 28.6599 8.65488 
23.0341 25.7211 8.3832 
23.0179 28.4675 11.4629 
24.5593 27.1198 10.0092 
22.8294 25.9313 11.3403 
21.4429 27.2344 10.1139 
25.7717 28.5437 8.5221 
25.9535 25.5268 8.40787 
26.0094 25.8842 11.3319 
27.3042 27.0846 9.8552 
25.926 28.7065 11.383 
28.5827 25.6944 11.2956 
1.41264 1.24155 12.9345 
0.0889872 2.82412 14.2852 
2.91336 0.0805115 14.1829 
2.94137 3.02098 14.3144 
1.40589 1.58045 15.7833 
4.45361 1.43826 12.8097 
7.21199 1.36617 12.8511 
4.28713 1.53956 15.7507 
7.04101 1.29267 15.7872 
5.84386 2.84983 14.4554 
5.78346 0.00102876 14.3677 
10.0103 1.44788 12.8532 
9.84919 1.50062 15.852 
8.59525 2.84375 14.3827 
11.3896 0.0447092 14.479 
11.3828 2.96311 14.464 
8.67663 0.0848456 14.3583 
12.7989 1.41966 12.8376 
15.9595 1.51808 12.9307 
14.3607 2.90058 14.2508 
14.2986 0.310477 14.2648 
12.9554 1.78496 15.8472 
15.9158 1.47858 15.7856 
18.6831 1.47302 12.795 
18.7887 1.48202 15.8679 
17.4491 0.0830301 14.5899 
17.2372 2.89791 14.4666 
20.0283 2.97257 14.457 
21.5497 1.26531 13.0812 
24.5095 1.20658 12.9746 
21.4672 1.42871 16.1175 
24.4793 1.41189 15.9267 
23.1261 2.87226 14.4254 
27.4044 1.12645 12.8247 
27.283 4.07699 12.8326 
25.946 2.87755 14.3108 
27.3172 1.34755 15.5966 
1.32191 4.3027 13.072 
1.34366 7.13162 12.9732 
2.94694 5.78408 14.3455 
1.46863 4.2175 15.9206 
1.44212 7.15915 15.6288 
7.1481 4.28296 13.0882 
4.57501 4.3159 13.0381 
4.32987 7.22276 12.9733 
6.94419 7.20602 12.8534 
4.36302 4.36181 15.9165 
4.33001 7.24031 15.8121 
7.14748 4.36394 15.799 
7.19948 7.15732 15.8014 
5.79844 5.80435 14.3719 
9.86748 4.12116 12.8683 
10.0559 7.03202 12.8838 
11.3213 5.64128 14.2261 
9.96021 4.34428 15.6929 
10.244 7.08542 15.7693 
8.54655 5.70102 14.3744 
12.89 4.24748 12.8682 
15.7412 4.39084 12.7705 
13.0064 7.22427 12.9415 
15.9576 7.21282 12.8543 
15.8689 4.5294 15.7282 
12.8015 4.33046 15.8061 
12.8296 7.07097 15.8387 
15.813 7.21644 15.7027 
14.2103 5.72564 14.3979 
18.6559 4.48864 12.955 
18.7841 7.05896 12.8876 
17.1364 5.79829 14.1842 
18.6877 4.39874 15.9265 
18.7782 7.39558 15.6944 
20.1489 5.73583 14.6366 
21.5132 4.25282 13.226 
21.875 7.15606 13.0189 
24.5122 7.0743 12.9674 
24.3856 4.13128 12.8609 
23.1182 5.58483 14.3624 
21.7024 4.15103 15.9089 
21.5708 7.31626 15.5929 
24.5033 7.22548 15.8439 
24.5585 4.33774 15.9573 
28.5919 5.62141 14.33 
27.1415 7.10518 13.0019 
27.3245 4.29717 15.8321 
27.4337 7.32636 15.7727 
25.7693 5.76069 14.3695 
1.60064 10.0988 12.9127 
2.81934 8.62244 14.3183 
3.00119 11.6058 14.2532 
1.41734 10.1643 15.6355 
4.17961 9.96068 12.8946 
7.03947 10.1065 12.7171 
5.53918 11.5859 14.3513 
4.15365 10.1535 15.7079 
7.21756 9.91526 15.7842 
5.71028 8.73254 14.3777 
9.97138 10.1789 12.803 
11.3577 8.68671 14.2845 
11.3439 11.5597 14.1548 
8.72176 8.609 14.3038 
9.87608 10.2105 15.7271 
8.37067 11.5084 14.3663 
12.912 9.9315 12.8441 
15.539 10.0159 12.9777 
14.2984 11.3707 14.3026 
12.7897 10.1415 15.6575 
15.7586 10.0138 15.5143 
14.1307 8.42974 14.4581 
18.4381 10.066 12.8276 
17.1497 11.5486 14.3437 
19.9458 8.75707 14.1014 
17.1219 8.50757 14.2768 
19.7984 11.4944 14.3228 
18.426 10.0175 15.912 
21.3258 10.1713 12.9382 
24.4254 10.007 12.9366 
22.8699 11.5097 14.2651 
21.3524 10.0439 15.7918 
24.4491 9.99009 15.7145 
22.9738 8.86251 14.3591 
27.1496 10.0257 12.8771 
25.7143 8.69903 14.1909 
25.7737 11.417 14.2273 
28.6437 8.64504 14.2865 
27.2231 10.0517 15.5772 
28.5592 11.4304 14.3745 
1.45291 12.9311 12.9376 
1.35753 15.4926 12.9344 
1.25451 12.8211 15.7842 
1.37568 15.6696 15.9914 
2.82515 14.1917 14.4907 
4.14781 15.7081 12.967 
4.18429 12.8812 12.7549 
6.96079 12.9659 12.8936 
7.21686 15.8274 12.9411 
5.87779 14.3877 14.3833 
4.26382 15.6633 15.8468 
4.38 12.949 15.793 
6.92126 12.9797 15.8695 
6.83974 15.9717 15.8147 
9.96877 12.9756 13.0529 
9.87126 15.8187 13.1173 
11.3416 14.3841 14.5172 
9.87795 12.7741 15.831 
9.88094 15.8097 15.9998 
8.47219 14.3149 14.5449 
12.777 13.0496 12.8561 
15.6214 13.0101 12.8357 
12.6591 15.8152 12.8754 
15.7553 15.7014 12.9181 
14.1812 14.4172 14.2317 
12.9237 12.818 15.6577 
15.64 13.0074 15.7076 
12.8152 15.6354 15.6851 
15.7975 15.6562 15.6699 
18.5716 13.091 12.8002 
18.5583 15.9122 12.9216 
20.0767 14.4131 14.3171 
17.1153 14.412 14.3463 
18.4472 12.8672 15.8321 
18.583 15.6976 15.8889 
21.3051 12.9636 12.9274 
21.4413 15.8117 12.7495 
24.3419 15.7872 12.7916 
24.3223 12.8909 12.9837 
21.3105 12.998 15.6924 
21.444 15.7224 15.6233 
24.3748 12.8072 15.5762 
24.4831 15.8473 15.8165 
22.8389 14.4135 14.4307 
27.2523 13.1017 13.0717 
27.1536 15.7276 12.9722 
27.2917 12.9001 15.8158 
27.2117 16.0281 15.7946 
25.7809 14.561 14.4135 
28.585 14.3092 14.4567 
1.45306 18.4439 12.9202 
2.86925 19.9583 14.1964 
0.0268875 17.2135 14.2177 
1.25699 18.689 15.5936 
2.7796 17.0851 14.5643 
4.36125 18.4372 12.94 
7.23929 18.7355 13.0992 
4.22182 18.453 15.8552 
7.12576 18.6803 15.873 
5.63242 20.1439 14.5137 
5.62811 17.2299 14.3672 
9.86537 18.9174 13.0211 
8.57432 17.3875 14.3503 
11.3371 20.0877 14.2739 
9.90379 18.5947 16.0042 
8.47362 20.2644 14.3677 
11.2831 17.3923 14.401 
12.722 18.5848 13.0234 
15.8936 18.6315 12.8189 
14.2317 17.1253 14.2093 
12.8629 18.4089 15.8041 
15.8542 18.7622 15.8759 
14.246 20.1962 14.3806 
17.1791 20.1155 14.3274 
18.6125 18.7512 12.993 
19.952 17.2696 14.2476 
18.4986 18.6592 15.7291 
20.0492 20.0572 14.512 
17.1863 17.188 14.5253 
21.5193 18.6339 12.8478 
24.3781 18.3378 12.962 
23.0548 17.0788 14.3532 
22.9015 19.8889 14.2997 
21.5505 18.5711 15.8265 
24.4582 18.6615 15.6875 
28.524 20.0677 14.2553 
27.2656 18.4794 12.9647 
25.7694 20.0748 14.3258 
26.0032 17.1539 14.2815 
27.2077 18.7092 15.6925 
1.29559 24.4624 12.8245 
1.59777 21.3448 12.6906 
2.72879 23.193 14.2167 
1.38062 21.376 15.4322 
1.29164 24.421 15.6698 
4.1668 21.6565 12.8815 
4.49123 24.4426 12.9871 
7.12106 21.5306 13.0978 
7.25874 24.5718 12.8124 
4.13507 21.6666 15.594 
7.03739 21.6182 16.0208 
4.36235 24.4899 15.7257 
5.78127 23.1105 14.4089 
9.81822 24.4343 12.9202 
9.9824 21.7829 12.9653 
11.594 22.9146 14.3394 
8.58147 23.0845 14.4224 
9.9967 21.5244 15.8738 
9.90797 24.2937 15.895 
12.738 24.507 13.0443 
15.69 24.5568 12.8545 
12.9554 21.5691 12.8839 
15.6935 21.3891 12.7792 
13.0099 21.5627 15.6741 
15.8829 21.5369 15.7669 
12.925 24.4494 15.744 
15.782 24.4728 15.7494 
14.3468 23.0797 14.3643 
17.0248 23.0007 14.1526 
18.6794 21.7357 12.9285 
18.6864 24.421 12.9762 
20.1886 23.1929 14.336 
18.6197 21.7554 15.5695 
18.6221 24.3685 15.7262 
24.4327 21.5347 12.9401 
21.6048 24.3284 12.8328 
24.5126 24.4382 12.6079 
21.4514 21.6739 12.9954 
22.9838 22.833 14.1187 
21.5533 21.6313 15.6489 
24.455 21.6473 15.6029 
21.5072 24.5648 15.8262 
24.3453 24.293 15.5456 
25.9896 23.004 14.1992 
27.2214 24.234 12.744 
27.243 21.5144 12.8064 
28.6404 22.9841 14.1983 
27.3301 21.6125 15.5993 
27.2508 24.5205 15.6587 
1.43644 27.2349 12.7496 
2.86006 25.8215 14.2257 
1.46246 27.1522 15.7416 
0.11971 28.5883 14.4737 
4.23855 27.3184 12.9643 
7.06416 27.4508 12.7396 
5.78718 25.9199 14.1672 
7.09912 24.6782 15.8201 
4.35473 27.2675 15.5826 
7.2051 27.3143 15.7523 
9.96272 27.2583 12.9565 
8.44117 25.984 14.3487 
11.4879 25.8703 14.468 
9.83033 27.2818 15.7591 
12.642 27.4497 13.1488 
14.4737 26.5838 12.3126 
16.2447 27.6922 13.0178 
12.9555 27.3402 15.7657 
15.933 27.4015 15.8613 
14.5002 25.9433 14.5463 
18.7835 27.1886 12.8374 
17.2392 25.8205 14.1429 
20.0989 28.6912 14.5238 
18.7871 27.2045 15.931 
20.0451 25.9574 14.3563 
23.059 25.6992 14.1377 
23.0122 28.5113 14.2754 
21.4196 27.3209 12.9496 
24.4059 27.2805 12.8463 
21.6835 27.0982 15.794 
24.4576 27.2258 15.6314 
27.1979 27.308 12.888 
28.7073 25.8403 14.2353 
25.7788 25.7798 14.1009 
26.0037 28.4924 14.4219 
27.3698 27.1159 15.8021 
1.46136 1.26909 18.5557 
2.86918 2.82405 17.3042 
2.95507 3.10623 20.0558 
0.043616 2.95732 20.0275 
4.29987 1.46181 18.7038 
7.10031 1.46912 18.9 
5.92341 2.83888 17.2246 
5.65654 0.0111366 17.2608 
5.68709 2.98107 20.1515 
9.99427 1.59062 18.5399 
8.50012 3.01221 17.198 
11.3554 2.97214 17.1336 
11.3432 0.016885 17.0593 
8.78938 3.00411 20.049 
11.474 2.87965 20.1455 
11.7352 0.300219 19.9214 
8.65448 0.175365 20.2021 
13.1016 1.64565 18.6261 
15.8632 1.57444 18.7026 
14.6272 3.00636 17.2295 
14.3166 3.10522 20.1507 
14.4444 0.236259 20.1575 
18.7419 1.39731 18.8244 
17.2353 2.90923 17.2835 
20.0819 2.85063 17.2057 
17.3072 0.021368 17.2628 
20.2093 0.0218924 17.2332 
17.1549 2.90392 20.1012 
20.2001 2.82715 20.0158 
17.2142 0.104721 19.9743 
20.2825 0.00834691 20.2406 
21.757 1.25562 18.9199 
22.9365 2.6873 17.3962 
24.5475 1.26071 18.5718 
23.1873 2.83706 20.2831 
28.658 2.7541 17.1821 
27.278 1.36704 18.682 
25.8422 2.87277 17.1331 
25.8725 2.72144 19.9791 
25.9059 0.0265706 20.1413 
1.53392 4.27163 18.5411 
1.60495 7.09028 18.6111 
2.99087 5.76514 17.2742 
0.116185 5.8374 17.0807 
2.79519 5.83782 20.1256 
0.0947565 5.8331 19.9244 