ITEM: TIMESTEP
81000
ITEM: NUMBER OF ATOMS
2001
ITEM: BOX BOUNDS pp pp pp
0.0000000000000000e+00 2.8712000000000000e+01
0.0000000000000000e+00 2.8712000000000000e+01
0.0000000000000000e+00 2.8712000000000000e+01
ITEM: ATOMS x y z 
1.37886 1.37194 1.29535 
2.76904 2.89604 2.87938 
3.04301 0.0610129 2.90291 
2.93615 2.91843 0.0924557 
4.31175 1.42369 1.45707 
7.35273 1.42196 1.43586 
5.86056 2.80213 2.81994 
4.37608 4.03688 1.41907 
5.94374 2.82371 0.0276442 
5.61006 0.0244573 0.00415811 
10.2409 1.67188 1.40001 
8.62674 2.87654 2.89722 
11.7286 2.87263 2.83331 
11.4819 0.069157 0.0316761 
8.62292 0.106986 0.209497 
8.91152 0.10424 2.79569 
11.5339 0.204453 2.87252 
8.90819 2.88499 0.0446998 
13.1487 1.59544 1.47471 
15.9245 1.48451 1.49296 
14.5003 3.05338 2.92262 
14.2852 0.240077 2.91689 
14.4558 0.034308 0.066281 
18.8213 1.42298 1.23005 
17.3479 3.01951 2.79719 
20.1807 2.96626 2.84649 
20.256 0.130479 2.79975 
22.9021 2.94061 2.8023 
24.2205 1.40102 1.35185 
21.4085 1.57515 1.26857 
23.0857 0.0304261 2.83941 
23.0309 2.93412 0.0741626 
22.8621 0.0378194 0.103893 
28.6981 2.98648 2.72937 
27.2043 1.20762 1.2837 
25.9015 2.78364 2.70339 
1.40521 4.26509 1.28399 
1.53275 7.07569 1.51236 
2.94039 5.82556 2.94442 
2.81273 5.57612 0.0340262 
0.219997 5.73332 2.82092 
7.20544 4.3623 1.58341 
7.17789 4.26509 4.09161 
4.33684 7.11848 1.52096 
7.18009 7.11354 1.47576 
5.63507 5.61409 2.80815 
10.1106 4.19654 1.61929 
10.0984 7.34419 1.39599 
8.73308 5.82055 2.92116 
11.5877 5.79344 2.83527 
8.66271 5.72818 0.0463842 
12.9995 4.39705 1.41206 
15.8308 4.3891 1.21313 
12.8641 7.17377 1.35356 
15.9567 7.1295 1.40187 
14.409 5.66324 2.90934 
18.6032 4.26951 1.32256 
18.6545 7.11846 1.42179 
17.2945 5.73739 2.74037 
18.7014 7.20226 4.0094 
20.1345 5.62175 2.8019 
20.1812 5.91301 0.00357391 
21.5823 4.42561 1.3397 
21.4861 7.26398 1.53879 
22.992 5.70738 2.86709 
24.468 7.09585 1.58932 
24.4284 4.31547 1.48645 
23.0987 5.69977 0.149084 
27.3915 4.29691 1.34422 
27.2586 7.04121 1.28804 
25.9932 5.58593 2.73152 
1.4219 10.0398 1.70238 
2.72877 8.68387 2.92231 
2.94745 11.532 3.01384 
0.0318908 8.51292 2.84983 
2.82629 11.3357 0.102835 
2.73526 8.68552 0.169123 
4.38028 10.0411 1.48 
7.21337 10.124 1.36525 
5.67159 8.47514 2.9806 
7.10022 9.88943 4.07134 
5.72724 11.5527 2.79999 
5.74598 8.56832 0.0679446 
5.70972 11.6012 0.102522 
10.0714 10.2116 1.54881 
8.70084 8.64536 2.69923 
11.5224 8.55228 2.82397 
8.64278 11.5815 2.94427 
11.4922 11.4446 3.04423 
8.55068 11.479 0.109432 
11.4131 11.6136 0.0786095 
8.6129 8.72567 0.120837 
12.892 10.1026 1.43865 
15.7262 10.0581 1.43228 
14.3605 8.33767 2.84687 
14.3661 11.2904 2.98576 
14.3683 8.66228 0.00559453 
18.7126 10.0441 1.36575 
17.234 8.71035 2.80764 
20.1029 8.89873 2.88968 
17.276 11.2723 2.80898 
20.0892 11.5658 2.87425 
17.1289 8.7186 0.0264189 
20.1007 8.67586 0.0851409 
17.1105 11.478 0.0102694 
21.7102 10.1966 1.45416 
22.8911 8.61175 2.849 
23.0043 11.583 2.79741 
24.589 10.1641 1.72829 
28.6478 11.7258 2.9231 
27.2109 9.81233 1.38181 
25.9357 8.36338 3.03095 
25.8857 11.5192 3.05669 
28.6973 8.57742 0.187878 
28.6395 11.3311 0.169561 
1.48436 12.9379 1.4118 
1.52889 15.666 1.41321 
2.89603 14.219 2.93748 
0.0600255 14.2627 0.0586707 
0.0834692 14.2608 2.85843 
4.47066 15.8092 1.36638 
4.35487 12.858 1.6045 
7.05143 13.0389 1.68093 
6.92597 15.8518 1.51969 
5.6683 14.2959 2.92309 
5.70342 14.3577 0.0141509 
9.91721 12.9615 1.49284 
9.89621 15.7567 1.37708 
8.5608 14.307 2.92108 
11.477 14.4543 2.91125 
11.4162 14.3457 0.20432 
8.56234 14.2739 0.0375387 
12.9462 12.9549 1.55332 
15.6626 13.0001 1.32226 
12.9715 15.7219 1.45282 
15.8019 15.7506 1.35821 
14.333 14.3276 2.87634 
18.4506 12.8325 1.42295 
18.6019 15.8923 1.36449 
17.2352 14.4761 2.77076 
19.8738 14.3396 2.66499 
21.4264 13.0073 1.38023 
21.6109 15.5576 1.33987 
22.9946 14.4462 3.11659 
24.2565 15.5561 1.46712 
24.5598 13.0875 1.5112 
27.4418 12.9649 1.41088 
27.2718 15.8928 1.41263 
25.8594 14.4109 2.86288 
1.41484 18.5124 1.30393 
2.83519 17.1638 2.8307 
2.95055 20.0559 2.97809 
2.76725 20.1152 0.00494609 
4.22469 18.5277 1.47895 
7.05828 18.738 1.47671 
5.7466 17.3651 2.99859 
5.77733 20.1361 2.78324 
5.83203 20.1273 0.00280856 
10.0246 18.611 1.39196 
8.49929 17.2525 2.79884 
11.4591 17.2523 2.8581 
8.63334 19.8681 2.87635 
11.4644 20.1831 2.85271 
11.4308 20.1229 0.137312 
8.6409 20.0497 0.124122 
12.7431 18.6378 1.50388 
15.7196 18.5676 1.26975 
14.4892 17.2261 2.85547 
14.2889 20.0009 2.74798 
18.5697 18.9363 1.21776 
17.2136 17.2909 2.78302 
20.0394 17.3853 2.63761 
17.1093 20.0737 2.93646 
19.9562 20.1594 2.71692 
21.5959 18.6812 1.31862 
24.4797 18.7264 1.37511 
23.3044 17.0765 2.67342 
22.8669 20.1269 2.79225 
22.9764 17.0949 0.0133706 
28.6939 19.8597 2.86632 
28.5776 17.2676 2.91799 
27.187 18.7293 1.26632 
25.8012 17.2987 2.85524 
25.8372 20.1133 2.74084 
1.36592 21.6355 1.20927 
2.74451 22.8428 2.82287 
1.38646 24.2668 1.3581 
0.0568084 22.5943 2.82064 
4.30501 24.2195 1.409 
4.21433 21.4346 1.34861 
7.00639 21.6337 1.38203 
5.80955 22.9954 2.82417 
7.20367 24.4123 1.18947 
8.60116 22.8275 0.233325 
10.1235 21.6085 1.63535 
8.48322 23.0923 2.85357 
11.5364 23.0691 3.06375 
10.1009 24.3587 1.50576 
11.4651 22.918 0.0450248 
13.0556 21.5149 1.49601 
15.8065 21.4443 1.60108 
14.3042 22.9658 2.95079 
15.8586 24.2122 1.50574 
14.2789 22.7837 0.0689781 
13.1037 24.4003 1.3717 
18.6343 21.4524 1.17727 
17.3239 22.9187 2.88063 
20.0401 22.8009 2.64825 
18.5931 24.3804 1.23069 
21.3644 21.3419 1.35845 
24.3377 21.4288 1.17032 
21.4661 21.4753 4.02537 
23.0518 22.9965 2.70457 
24.3735 24.3702 1.39853 
21.4322 24.5238 1.56655 
27.2545 21.3862 1.36437 
25.7269 22.8479 2.76156 
27.1935 24.3394 1.21069 
0.061004 28.6162 2.73329 
2.89888 25.7724 0.193571 
1.50968 27.1845 1.2913 
2.96776 25.5922 2.89399 
5.70088 28.6561 2.84421 
4.31417 27.2179 1.39287 
7.00877 27.4352 1.43149 
5.76731 25.7619 2.77097 
5.747 25.6707 0.0704292 
10.1419 27.1293 1.45582 
8.56923 25.9195 2.91222 
11.5505 25.8882 2.9022 
12.9611 27.2087 1.4601 
16.0189 27.3944 1.5524 
14.5483 25.8318 3.03455 
14.5606 25.9625 0.125453 
17.4164 28.6624 3.02287 
18.7655 27.3383 1.36219 
17.3199 25.7924 2.86856 
20.1574 26.0554 2.84657 
21.621 27.2967 1.4385 
23.2276 25.8003 2.90696 
24.3525 27.2096 1.44413 
22.7942 25.8239 0.00254725 
25.8122 28.6826 2.76572 
28.5671 25.6009 2.79552 
28.6442 28.511 0.0956414 
27.127 27.2287 1.47493 
25.9349 25.7344 2.8732 
25.7049 25.7832 0.142291 
1.47614 1.45454 4.16345 
1.493 1.31618 7.14141 
3.0021 2.80221 5.58195 
0.114151 2.77415 5.68404 
4.31516 1.40957 4.10622 
7.17504 1.36562 4.10247 
4.2968 1.26562 7.00817 
7.1634 1.28068 7.14008 
5.78008 2.70007 5.72421 
10.2359 1.7193 4.30131 
10.1105 1.37189 6.96669 
8.52616 2.98962 5.61241 
11.4812 3.01515 5.88232 
8.45914 0.182858 5.70117 
11.6306 0.0579868 5.55784 
13.0441 1.81159 4.43222 
15.8348 1.40414 4.33027 
12.7724 1.24403 7.19632 
15.7933 1.60108 7.10439 
14.4051 3.09293 5.82003 
14.4202 0.152574 5.54698 
18.8364 1.5118 4.25189 
18.6486 1.29823 7.14586 
17.3882 3.03609 5.63789 
20.1011 2.95123 5.65595 
20.1471 0.0928415 5.68242 
21.593 1.4968 4.47099 
24.4693 1.37586 4.35981 
21.4769 1.27209 7.1109 
23.0703 2.76371 5.91193 
24.3973 1.3878 7.14502 
27.1985 1.37977 4.11136 
27.2876 1.56463 7.1179 
25.8413 2.649 5.52372 
1.40176 4.28715 4.42385 
1.34481 7.12887 4.26903 
1.444 4.34118 7.10119 
1.2638 7.24754 7.19466 
2.70375 5.83781 5.71463 
4.02632 4.32911 7.17361 
0.0292002 5.88883 5.7276 
4.3247 4.17784 4.25843 
4.29943 7.27988 4.33181 
7.07353 7.0636 4.31086 
4.27009 7.16334 7.40046 
7.20239 4.1848 7.06061 
5.61543 5.77741 5.83846 
7.23198 7.23204 7.12377 
9.97416 4.44809 4.1884 
9.97575 7.19462 4.22115 
9.89547 4.24894 7.06815 
8.50033 5.52984 5.67733 
9.79454 7.16574 7.00164 
11.4913 5.92496 5.55593 
12.9524 4.43065 4.36658 
15.9053 4.41824 4.40051 
13.1381 7.1076 4.25732 
15.8544 7.15264 4.28801 
12.838 4.69522 7.14359 
15.8594 4.38883 7.13614 
13.0429 7.19268 7.22358 
14.4464 5.83186 5.89728 
15.7353 7.2315 7.2671 
18.6776 4.43442 4.33587 
18.7365 4.35709 7.30536 
17.2666 6.03079 5.79398 
18.7185 7.24427 7.40722 
19.9464 5.76429 5.66614 
21.5377 4.43583 4.20373 
21.4378 7.22394 4.28153 
24.3851 7.10275 4.30144 
24.4932 4.16347 4.24213 
21.4322 4.18028 7.24679 
24.3101 4.34081 7.18669 
21.6467 7.16388 7.10822 
22.9063 5.77292 5.5645 
24.5636 7.12878 7.10463 
27.3259 4.27975 4.19456 
27.1617 7.16291 4.27479 
27.2132 4.40812 7.14957 
25.8082 5.58988 5.67706 
27.1824 7.15696 7.11867 
1.4167 9.96401 4.36533 
1.42688 10.0582 7.17952 
2.85832 8.65918 5.90449 
2.75217 11.4488 5.86424 
4.24846 10.1181 4.30595 
4.3167 10.0474 7.23621 
5.73141 8.68807 5.73773 
7.24948 10.1013 7.139 
5.62776 11.3196 5.78809 
10.0709 9.88036 4.38946 
8.50113 8.41628 5.5959 
10.11 10.0089 7.0658 
11.5439 8.49688 5.5709 
8.46672 11.2995 5.65115 
11.4162 11.5264 5.63783 
12.9667 9.95962 4.41013 
15.863 9.94229 4.32477 
13.0558 10.0009 7.07919 
14.533 8.5396 5.67846 
15.8253 10.125 7.23172 
14.3784 11.4132 5.74319 
18.5972 10.0581 4.39626 
19.9868 8.56058 5.71363 
17.2577 8.50037 5.89164 
18.7753 10.0241 7.44083 
17.2016 11.5776 5.96245 
19.9958 11.3846 5.83964 
21.3269 10.0197 4.50037 
24.1792 10.0735 4.43696 
21.6068 9.94984 7.14309 
22.8273 8.56372 5.57494 
22.8065 11.6509 5.64171 
24.2072 10.1322 7.07908 
27.3362 10.1646 4.31679 
28.7091 8.6528 5.67108 
28.6847 11.5226 5.86752 
25.7257 8.84787 5.75865 
27.2812 10.0311 7.16741 
25.7494 11.2979 5.69526 
1.29284 13.0275 4.26738 
1.32777 16.0522 4.34535 
4.06106 12.8658 4.46052 
1.20046 13.0274 7.27261 
1.3345 15.7303 7.28609 
2.84812 14.6443 5.78039 
4.10102 13.0465 7.10823 
4.2161 15.8417 4.23926 
7.0738 12.8542 4.2987 
7.11851 15.7977 4.36208 
4.33596 15.7995 7.16644 
7.05812 12.8264 7.0293 
5.59382 14.3579 5.88044 
7.0815 15.8558 7.04229 
10.0734 12.923 4.28373 
10.0223 15.7265 4.1995 
10.0241 12.724 7.20757 
8.6268 14.2468 5.62015 
10.1779 15.8153 7.18023 
11.5215 14.3524 5.66345 
13.1184 12.8219 4.26973 
15.9784 12.9611 4.2215 
12.9659 15.7806 4.27998 
15.9094 15.7244 4.28309 
12.8222 12.801 7.05966 
15.6996 13.0923 7.1079 
13.0215 15.981 7.17456 
14.2574 14.2774 5.85791 
15.6305 15.8633 7.00768 
18.6407 12.9205 4.34838 
18.5313 15.7309 4.36602 
18.6028 12.8089 7.29752 
17.2151 14.3655 5.90545 
18.7476 15.844 7.20951 
19.924 14.3941 5.83454 
21.3769 13.1197 4.36037 
21.3718 15.6606 4.27647 
24.4933 15.9157 4.37345 
24.3721 12.9701 4.44495 
21.4645 12.8967 7.17497 
21.5724 16.0292 7.25426 
22.9357 14.6241 5.79479 
24.4603 12.7958 7.13567 
24.4267 15.8457 7.31746 
27.2914 12.9322 4.34446 
27.2287 15.825 4.26222 
28.4715 14.4288 5.77033 
27.1745 12.8946 7.13811 
25.7966 14.5297 5.80664 
27.0859 15.8662 7.2488 
1.56425 18.6719 4.22369 
1.37105 18.6213 7.06669 
2.92206 17.2481 5.71555 
2.80215 20.0195 5.75817 
4.06851 18.6554 7.29902 
4.25228 18.5481 4.19416 
7.08617 18.847 4.53885 
5.54434 17.3112 5.58615 
7.009 18.6352 7.31279 
5.43621 19.873 5.76719 
10.0985 18.5591 4.31484 
8.58228 17.4376 5.76847 
10.0912 18.899 7.3359 
11.3075 17.2605 5.84695 
8.4587 20.1772 5.63566 
11.589 20.1612 5.67873 
12.9883 18.5576 4.39424 
15.8171 18.5139 4.22891 
12.8976 18.5831 7.15107 
14.5385 17.3257 5.64848 
15.8168 18.6157 7.1904 
14.4519 19.9573 5.85 
18.7641 18.5805 4.13092 
17.3005 17.0542 5.61374 
18.5988 18.5495 6.97194 
20.2212 17.3538 5.53343 
17.2456 20.1562 5.66272 
20.2427 20.1747 5.46041 
21.7098 18.6897 4.32449 
24.4264 18.6431 4.22523 
21.4218 18.8739 7.15364 
22.93 17.3385 5.61327 
23.0263 20.0418 5.79671 
24.0751 18.6657 7.25281 
27.1126 18.6243 4.32035 
28.5197 20.118 5.69424 
28.565 17.2572 5.88281 
25.6809 17.4289 5.86719 
27.2096 18.7353 7.3608 
25.765 20.2164 5.68787 
1.37324 21.5081 4.35925 
1.36544 24.3188 4.21635 
1.46383 21.5465 7.13703 
2.87466 22.8587 5.71991 
1.43805 24.3494 7.02598 
0.00188773 22.8376 5.69945 
4.45972 21.6837 4.23282 
4.25375 24.3404 4.22434 
7.20592 21.5046 4.30715 
7.02434 24.287 4.37317 
4.25266 21.4613 7.09391 
6.9288 21.5182 7.15347 
5.53922 22.9223 5.7663 
6.88366 24.2723 7.14509 
4.23162 24.4021 7.25877 
10.0475 21.5978 4.45698 
9.87082 24.4171 4.17677 
10.2432 21.6225 7.07194 
8.54751 22.9647 5.95675 
11.5354 23.0134 5.69187 
10.1675 24.4148 7.01442 
13.1424 21.4454 4.33568 
15.8249 21.5052 4.29642 
15.894 24.4088 4.41703 
13.0231 24.4832 4.32822 
13.0152 21.6519 6.95807 
15.8555 21.4988 7.09358 
14.3109 22.9848 5.54522 
12.7107 24.4653 7.25048 
15.6977 24.2277 7.16481 
18.9045 21.5646 4.27809 
18.6639 24.3566 4.18013 
18.9016 21.5618 7.1105 
17.2062 23.0713 5.87512 
20.3848 23.0245 5.65212 
18.7268 24.2926 7.21513 
24.3836 21.3543 4.30334 
24.5017 24.3327 4.22682 
21.5988 24.5409 4.16751 
21.5256 21.4085 7.1607 
23.0403 22.96 5.57303 
24.3196 24.2807 7.08242 
24.3817 21.3595 7.16204 
21.6752 24.5417 7.25124 
27.1027 21.4418 4.36009 
27.3672 24.2584 4.4597 
27.1919 21.496 7.26192 
25.6703 22.9634 5.64076 
27.0855 24.1155 7.15442 
1.38165 27.323 4.40893 
2.63385 28.6596 5.73472 
1.15103 27.2919 7.25719 
2.80447 25.8111 5.70314 
0.0378729 25.8035 5.72267 
4.29739 27.2448 4.27468 
7.21549 27.1716 4.43382 
5.763 28.5071 5.67297 
4.31454 27.3521 7.16707 
5.65785 25.7482 5.56456 
7.2216 27.3187 7.22582 
9.98026 27.2855 4.26879 
8.44116 25.7558 5.69806 
9.96943 27.2512 7.06579 
11.3453 25.9633 5.69431 
12.9097 27.1319 4.21624 
15.9827 27.2207 4.42833 
12.7392 27.2363 7.11039 
14.1691 25.8871 5.80232 
15.7785 27.2088 7.32256 
18.7735 27.2118 4.34982 
17.3437 28.6562 5.90414 
17.1888 25.8776 5.7791 
18.619 27.119 7.25866 
20.0265 25.706 5.70093 
21.5674 27.2732 4.27494 
22.9079 28.6725 5.8368 
21.4022 27.2795 7.12944 
22.9294 25.872 5.64927 
24.3931 27.2006 7.06342 
24.6227 27.0187 4.22918 
27.3227 27.2072 4.26596 
25.9181 28.5797 5.56395 
28.5576 28.6397 5.56867 
25.9812 25.8872 5.8464 
27.2168 27.0659 7.23236 
2.90425 2.75 8.67987 
0.139487 2.90367 8.4318 
1.51199 1.43058 10.0324 
2.94268 2.80444 11.4498 
0.0927444 2.8041 11.4963 
0.0604021 0.0181554 11.4522 
5.51095 2.82054 8.45119 
5.73964 0.00708009 8.54894 
4.4373 1.23402 10.1147 
7.10425 1.37638 10.0068 
5.58487 2.83808 11.3645 
8.35561 2.77436 8.5513 
11.4568 2.94474 8.60386 
8.52101 0.0186681 8.59535 
11.3498 0.0557868 8.54076 
11.437 0.0102051 11.5566 
8.5444 0.0856884 11.3869 
9.9467 1.45745 10.0448 
8.49381 2.8761 11.6653 
11.3309 2.99671 11.4568 
9.82068 4.06199 9.8776 
14.2558 3.00338 8.54045 
14.4126 0.0463391 8.37667 
14.346 0.247788 11.5054 
12.7743 1.52834 10.0212 
15.8337 1.58787 10.0491 
14.3423 2.89952 11.4269 
17.2318 2.91618 8.58904 
20.1976 2.88517 8.50182 
20.0691 0.0453356 8.80543 
17.2627 0.0386435 8.62311 
20.1854 0.122727 11.3638 
17.3342 0.0594875 11.4138 
18.6975 1.41882 9.93961 
17.4126 2.76596 11.4518 
20.1915 3.01077 11.5466 
22.9856 3.04034 8.58048 
22.7253 0.00496761 8.72368 
22.909 0.0497156 11.4108 
21.6144 1.59215 10.0008 
23.0898 2.87117 11.4851 
24.2272 1.31629 9.87344 
25.8141 2.90289 8.5285 
28.6627 0.170903 8.52401 
27.0841 1.62821 9.98025 
25.9068 3.03967 11.4271 
2.85837 5.70933 8.76358 
1.48024 4.12009 10.0009 
1.35419 7.22181 10.0312 
2.88796 5.6591 11.2636 
5.81924 5.5098 8.53948 
4.23466 4.29084 9.96187 
4.4207 7.16103 9.88705 
7.14577 4.10242 10.0185 
7.16124 7.20831 10.1013 
5.57079 5.57149 11.4776 
8.37588 5.69263 8.5749 
11.2013 5.74152 8.60861 
9.9187 6.91414 10.061 
8.63264 5.63459 11.5137 
11.4588 5.78162 11.6041 
14.1811 5.71691 8.87221 
12.5954 4.32689 10.0312 
15.7726 4.16721 10.021 
12.7023 7.28594 10.0002 
15.7843 7.21237 9.93113 
14.3121 5.8265 11.398 
17.1554 5.6076 8.72382 
20.1879 5.50309 8.51836 
18.8836 4.3368 10.0991 
18.5888 7.19142 10.1596 
17.1635 5.64099 11.3911 
20.1421 5.66182 11.611 
22.9974 5.73964 8.55208 
21.7761 4.4824 10.0006 
21.6719 7.18581 10.0565 
23.142 5.72688 11.492 
24.45 4.46403 9.95776 
24.4558 7.0824 9.91145 
28.6165 5.67669 8.76323 
25.8924 5.68888 8.48226 
28.6187 5.70857 11.3382 
27.3317 4.34977 10.0286 
27.2804 7.14294 9.91708 
25.6334 5.95393 11.5955 
2.8898 8.50695 8.73483 
2.79191 11.4648 8.5302 
1.44779 10.0256 10.0179 
2.95532 8.67214 11.1695 
2.96718 11.4603 11.43 
5.74532 8.46503 8.40467 
5.60993 11.6587 8.53553 
4.28979 10.1899 9.98138 
7.06433 10.1194 9.82655 
5.69985 8.57925 11.5422 
5.55861 11.6169 11.4655 
8.66892 8.48829 8.75946 
11.3655 8.58125 8.52338 
8.56337 11.4835 8.69983 
11.4537 11.4633 8.63651 
11.1547 8.44873 11.5654 
9.92688 9.95266 10.0283 
8.59817 8.63901 11.5035 
8.3841 11.4436 11.5535 
11.3754 11.3893 11.4362 
14.3717 8.66626 8.49013 
14.2241 11.3141 8.57372 
12.7269 9.95319 9.88562 
15.5277 10.0578 10.0429 
14.177 8.61499 11.4149 
14.079 11.495 11.4912 
17.304 8.86752 8.64092 
19.9828 8.62364 8.77353 
17.2852 11.5646 8.66303 
20.0903 11.4074 8.74994 
18.7309 10.1843 10.1627 
17.2585 8.56891 11.4122 
20.1518 8.57881 11.3062 
17.0904 11.4619 11.5515 
20.1924 11.4931 11.4871 
22.9836 8.47337 8.4665 
22.9268 11.5102 8.54853 
21.6443 10.0383 9.96861 
22.9753 8.65735 11.3631 
22.859 11.7669 11.5615 
24.285 10.0438 9.88853 
28.6194 8.76615 8.5623 
28.6968 11.5429 8.47604 
25.8254 8.66492 8.57486 
25.8824 11.403 8.49874 
28.6137 11.5872 11.3227 
28.6949 8.71012 11.5747 
27.0992 9.93355 10.0129 
25.8222 8.35151 11.3619 
25.8849 11.5029 11.3145 
2.79413 14.4261 8.66573 
1.45765 12.852 9.91828 
1.22732 15.7285 10.1005 
2.77592 14.3835 11.4698 
5.83805 14.3659 8.553 
4.22099 12.9693 10.0707 
4.47322 15.6636 10.0571 
7.18026 12.972 10.0415 
7.29563 15.7301 9.9506 
5.78967 14.286 11.4357 
8.56846 14.2226 8.45026 
11.4711 14.4411 8.71005 
10.1106 12.9228 10.1316 
9.97763 15.9516 9.80778 
8.65738 14.4202 11.4058 
11.2916 14.6246 11.7286 
14.3379 14.3426 8.59674 
12.6781 13.0066 10.136 
15.785 12.8221 10.0357 
12.8389 15.8224 9.99751 
15.6945 16.0401 10.0445 
14.4148 14.3372 11.5605 
17.1482 14.3041 8.74684 
19.9716 14.3788 8.67409 
18.5622 12.8499 10.1184 
18.5659 16.0407 10.1816 
17.1522 14.4278 11.4095 
19.9261 14.1739 11.467 
23.1956 14.3907 8.64523 
21.6282 12.9969 10.079 
21.3888 15.7374 10.2417 
23.1121 14.2861 11.4957 
24.5397 15.8014 10.0119 
24.37 12.7792 10.1387 
28.4449 14.2972 8.71243 
25.7519 14.181 8.60356 
28.6833 14.4889 11.5885 
27.2711 12.8248 9.86845 
27.2736 15.7925 10.2161 
25.8291 14.4621 11.6603 
2.78888 17.0325 8.70601 
2.75406 20.0557 8.66652 
1.39406 18.6874 9.99834 
2.99401 16.9718 11.4228 
2.87249 19.985 11.5023 
0.0305376 17.3109 11.6846 
5.54493 17.2215 8.79855 
5.66088 20.0895 8.62358 
4.20304 18.6002 10.1351 
7.20195 18.3989 9.81034 
5.89185 17.1361 11.499 
5.65945 19.9421 11.2989 
8.56339 17.2199 8.52597 
11.5127 17.399 8.74716 
8.44821 20.2093 8.56208 
11.6156 20.1718 8.71632 
10.0846 18.672 10.0979 
8.68036 17.2705 11.4117 
11.4468 17.2057 11.6332 
8.4456 20.0963 11.4327 
11.5966 20.2629 11.5187 
14.2421 17.1998 8.63645 
14.2952 19.9866 8.59792 
12.672 18.714 10.1238 
15.6582 18.8373 10.0498 
14.2099 17.1847 11.5302 
14.2697 19.9494 11.4118 
17.1364 17.099 8.61877 
20.0939 17.2306 8.65988 
17.3022 20.2121 8.73329 
19.9551 19.8797 8.7849 
18.4893 18.588 9.99947 
17.0854 17.373 11.5225 
19.9542 17.1218 11.7049 
17.2081 20.2114 11.6033 
20.1473 20.0071 11.3448 
22.9881 17.219 8.66797 
22.8737 20.1921 8.70766 
21.6914 18.7311 10.1422 
22.8953 17.2928 11.7738 
22.9018 20.0878 11.6836 
24.2241 18.5823 10.0943 
28.5606 20.1428 8.68369 
28.5231 17.1708 8.82512 
25.7544 17.3128 8.65432 
25.7233 20.099 8.4816 
28.5932 20.1431 11.4729 
27.1476 18.7506 10.1334 
25.7578 17.2808 11.6319 
25.7878 20.2472 11.5446 
2.86165 22.9028 8.55722 
1.6577 24.3971 9.9087 
1.29191 21.523 10.1202 
2.92372 23.1768 11.5843 
4.02667 21.4923 10.2256 
0.0972 23.2309 11.5966 
5.75905 22.9904 8.80675 
7.22168 24.398 9.90646 
4.27501 24.3353 9.93413 
7.1373 21.5493 10.1101 
5.81835 22.9838 11.2519 
8.6253 22.8227 8.56721 
11.3322 23.0372 8.51171 
10.1824 24.3613 10.1358 
10.0661 21.4748 10.063 
8.55268 22.8245 11.651 
11.5346 22.9394 11.6264 
14.2244 23.0631 8.46729 
12.5835 24.3177 9.83431 
16.1145 23.9603 9.89889 
14.316 22.901 11.3831 
15.7656 21.5626 9.92884 
13.0195 21.5726 9.86203 
17.515 22.7612 8.48421 
20.341 23.0665 8.56825 
17.2677 22.9786 11.7663 
20.1528 23.0089 11.5134 
18.7357 21.659 10.1183 
18.6757 24.3222 10.1669 
22.9478 22.8703 8.59892 
24.3849 21.632 10.0779 
24.3368 24.381 10.0361 
21.6707 24.4361 10.0355 
21.6376 21.4998 10.0506 
22.9767 23.0283 11.5821 
28.5962 23.0663 8.57564 
25.667 22.9891 8.54462 
25.7799 23.0661 11.6839 
27.1015 21.6579 10.027 
27.1634 24.4025 9.98931 
2.81991 28.6828 8.49889 
2.73217 26.001 8.39708 
0.0736497 25.8792 11.5279 
2.82382 25.8257 11.3311 
1.42196 27.3328 10.0132 
2.97691 28.6964 11.4456 
5.72161 25.8614 8.58918 
5.80538 28.6304 11.6026 
7.35456 27.2149 9.93756 
4.40562 27.1887 9.91679 
5.74118 25.691 11.5197 
8.62372 25.7081 8.54365 
11.2941 25.8672 8.42943 
11.5783 26.0004 11.2837 
8.67996 25.8476 11.5454 
9.96204 27.3199 9.95605 
14.1881 25.7425 8.27433 
12.9446 27.2336 9.98507 
14.4291 25.2172 10.5414 
14.383 26.621 12.0088 
15.6329 27.4279 10.0728 
17.0777 25.5952 8.61007 
20.057 25.6356 8.76935 
17.0928 25.8832 11.1931 
18.8169 27.1314 9.95741 
20.166 25.8975 11.5121 
23.0821 25.8817 8.41976 
21.6351 27.1565 9.91246 
23.0224 25.8471 11.529 
24.3321 27.2443 10.0116 
28.6742 25.5383 8.5175 
25.9751 28.5959 8.40665 
25.6643 25.8276 8.58735 
25.9142 28.7076 11.2948 
27.316 27.2223 9.97252 
25.8864 25.8854 11.288 
1.46064 1.31568 12.9618 
1.51491 4.04105 13.0395 
1.27745 1.30734 15.7883 
2.72678 0.0320347 14.4376 
2.84333 2.80868 14.5136 
4.25839 1.42312 12.9727 
7.22604 1.43663 13.1291 
4.28817 1.39732 15.7779 
7.33131 1.46079 15.8946 
5.79332 2.75584 14.3776 
10.0463 1.47229 12.9562 
10.1241 1.41633 15.8556 
8.52819 2.86178 14.3576 
11.4114 0.0724946 14.3786 
11.4402 2.84824 14.5281 
12.8692 1.68552 13.0331 
15.7853 1.56332 12.8221 
14.4303 0.304012 14.2545 
13.0247 1.27883 15.8102 
15.8812 1.6644 15.6676 
14.23 2.95535 14.4419 
18.818 1.38624 12.9943 
17.2534 3.03611 14.3469 
18.937 1.45857 15.784 
17.338 0.10885 14.5146 
20.1325 2.75947 14.4239 
22.7752 0.0418711 14.3399 
21.4785 1.52865 13.0083 
24.4177 1.34594 13.0839 
21.4444 1.29551 15.8007 
24.4561 1.2957 15.7777 
23.1092 2.8631 14.4317 
28.6273 2.72958 14.1863 
27.0327 1.40229 12.8766 
25.5639 2.96929 14.2917 
27.1793 1.63536 15.8347 
1.48622 7.42529 12.9359 
2.80668 5.8792 14.3248 
4.08865 4.20203 12.7833 
0.15831 5.85092 14.207 
1.29023 4.28836 15.6152 
1.3886 7.29892 15.709 
7.03293 4.22603 12.9852 
4.2223 7.20414 12.8654 
7.32672 7.1584 12.8983 
5.68013 5.76847 14.2374 
4.30132 4.47124 15.7035 
4.29298 7.00484 15.7474 
7.16742 4.34869 16.0036 
7.2695 7.12189 15.7054 
9.8842 4.26061 12.8941 
9.87198 7.17571 13.0251 
11.436 5.87971 14.3524 
9.96219 4.39832 15.7811 
9.94785 7.32266 15.6916 
8.61782 5.71218 14.3926 
12.8385 4.33377 12.7858 
15.8675 4.42442 12.9196 
12.915 7.28262 12.7837 
15.6562 7.29642 12.9021 
14.2564 5.98955 14.2234 
15.7199 4.31156 15.7147 
12.7112 4.46978 15.7929 
12.8285 7.22468 15.5959 
15.8701 7.18099 15.8778 
18.8133 4.36548 13.0115 
18.6094 7.11318 12.9878 
20.1377 5.75924 14.2941 
18.6619 4.42012 15.801 
18.5168 7.04077 15.6694 
17.2445 5.73467 14.4564 
21.7399 4.28771 12.8674 
21.6352 7.28374 12.8821 
24.2932 7.47693 12.7055 
24.4207 4.31633 12.8537 
22.9661 5.92537 14.3279 
21.5947 4.2527 15.7824 
21.4709 7.0947 15.796 
24.4278 7.14183 15.5697 
24.274 4.20343 15.8356 
27.2897 4.37889 12.8223 
27.2623 7.18382 12.8329 
25.6852 5.80489 14.2633 
27.2671 4.15591 15.6164 
27.2913 7.34429 15.5976 
1.36671 10.2528 12.6771 
2.8001 8.65946 14.1875 
2.83993 11.4669 14.2691 
0.0166359 8.71694 14.2449 
0.0876078 11.4213 14.1743 
1.44009 10.0572 15.814 
4.17505 10.1926 12.7347 
7.07275 10.0135 13.0036 
5.57701 8.58496 14.2602 
4.14309 9.9305 15.8376 
7.30488 9.95328 15.8751 
5.59696 11.3972 14.3587 
9.98514 10.1877 12.8893 
11.456 8.67076 14.2121 
11.4151 11.5835 14.3203 
9.99975 10.0438 15.9396 
8.62304 11.5087 14.4453 
8.50371 8.71402 14.447 
12.7716 10.0568 13.0622 
15.782 10.0334 12.7333 
14.4538 11.4392 14.1925 
14.2664 8.72967 14.3486 
12.8336 10.0773 15.6832 
15.6602 9.99338 15.6461 
18.7754 9.82309 12.8425 
17.3862 11.2629 14.2238 
20.0819 8.598 14.2424 
17.1873 8.61917 14.2685 
20.1456 11.3139 14.3444 
18.6848 9.96588 15.9049 
21.5717 10.0843 12.8048 
24.3011 10.03 12.7571 
22.8149 8.50698 14.2637 
21.5558 9.95223 15.6789 
24.3518 10.1436 15.7711 
22.8924 11.4843 14.4204 
27.2378 10.0101 12.9678 
25.7814 11.3782 14.2549 
27.3077 10.2681 15.6511 
25.7182 8.68337 14.3843 
1.41575 12.9278 12.8193 
1.40812 15.8382 12.9137 
4.10134 12.9113 12.9256 
2.7696 14.298 14.2897 
1.36061 12.8932 15.804 
1.35941 15.6941 15.7478 
4.38325 15.6116 12.9259 
7.21724 12.9518 12.8714 
7.11047 15.5994 12.7656 
5.80066 14.2082 14.3646 
4.50131 15.7086 15.7155 
4.29891 12.7391 15.7459 
7.20029 13.0342 15.7057 
7.24295 15.7656 15.6615 
9.91666 12.9363 12.9117 
9.86957 15.6353 13.0482 
11.3493 14.3581 14.3721 
10.1736 12.9461 15.8928 
9.90863 16.0011 15.5883 
8.62874 14.2495 14.4015 
12.958 12.9941 12.9879 
16.0126 12.8224 13.0061 
12.8322 15.8397 12.9925 
15.6982 15.897 12.9045 
13.0029 12.8973 15.7216 
15.7539 12.9079 15.6458 
12.8984 15.8726 15.7361 
16.0215 15.5844 15.7201 
14.3578 14.3994 14.3977 
18.6919 12.7511 12.713 
18.6601 15.7795 12.9909 
20.0747 14.2683 14.3205 
17.3911 14.2019 14.2117 
18.7453 12.8393 15.7238 
18.6271 15.6672 15.944 
21.6849 12.919 12.9256 
21.4156 15.789 12.8602 
24.4442 15.8773 13.0708 
24.3726 12.9415 12.9917 
21.5239 13.0075 15.7845 
21.5672 15.9278 15.8932 
24.4609 12.8293 15.8107 
24.509 15.7582 15.9984 
23.0562 14.2998 14.403 
27.2125 12.9137 12.8173 
27.1343 15.7985 13.0313 
28.6348 14.1684 14.2917 
27.4725 12.8861 15.8313 
27.3163 15.743 15.6445 
26.0042 14.264 14.4447 
1.50422 18.759 12.9161 
2.99532 20.1382 14.318 
0.178079 20.1407 14.2178 
1.45426 18.551 15.6948 
2.95306 17.214 14.3627 
4.32524 18.6653 12.9264 
7.18944 18.673 12.8581 
5.84002 17.103 14.1306 
4.10606 18.4497 15.6704 
7.434 18.5106 15.7421 
5.86692 19.8041 14.5991 
10.2529 18.7921 12.9067 
8.68711 17.2304 14.0172 
11.595 20.2144 14.2518 
10.1589 18.7138 15.7911 
8.80338 19.9422 14.463 
11.4893 17.4229 14.4345 
12.8826 18.7557 13.1299 
15.6542 18.7344 13.0147 
13.1862 18.8118 15.7904 
15.6377 18.4807 15.8141 
14.4159 20.2997 14.4648 
14.3471 17.0789 14.5571 
18.5166 18.7994 12.903 
17.2282 17.2703 14.2939 
18.5863 18.581 15.8877 
20.0457 19.9364 14.3975 
17.2073 20.0605 14.5108 
20.1695 17.202 14.4923 
21.4983 18.6097 12.9698 
24.4985 18.7468 13.1148 
21.4513 18.7156 15.9046 
24.5243 18.6723 15.8608 
22.9963 17.1556 14.4368 
23.0099 20.0961 14.425 
28.6942 17.2575 14.211 
27.3376 18.9116 13.0516 
26.0119 20.3154 14.3396 
27.5514 18.8074 15.7891 
25.8815 17.2669 14.5027 
1.61445 24.531 12.9666 
1.45326 21.5738 12.8494 
3.11545 22.8704 14.3378 
0.183495 23.1437 14.2456 
1.54317 21.644 15.8694 
1.5158 24.395 15.9579 
4.51476 21.4749 12.7551 
4.48761 24.2983 12.7841 
7.1998 21.2991 13.0126 
7.21865 24.4735 12.9553 
5.90253 22.9266 14.1592 
4.52214 21.329 15.734 
7.21819 21.6551 15.9184 
4.51398 24.3262 15.8375 
7.08815 24.3685 15.661 
10.042 24.5574 12.7241 
9.90358 21.4989 13.0466 
11.3696 23.1273 14.2442 
8.53176 22.8642 14.1964 
9.93854 21.6579 15.8426 
10.0451 24.3938 15.715 
15.7833 24.4696 12.7089 
12.9371 21.6117 12.992 
15.7676 21.5681 13.0531 
12.8718 21.5 15.5997 
15.7838 21.6036 16.0286 
12.9255 24.4973 15.7516 
15.9337 24.4786 15.8035 
14.5034 23.2056 14.4806 
18.6516 21.5096 13.036 
18.6947 24.3754 12.9446 
20.159 22.9461 14.3403 
18.6584 21.5635 15.7369 
18.8518 24.4011 16.0073 
17.1731 22.9604 14.4003 
24.4626 21.3825 12.8533 
21.4822 24.5502 12.8761 
24.4455 24.5802 12.8667 
21.398 21.5422 12.9849 
22.9636 23.0227 14.2501 
21.5744 21.4583 15.8256 
24.4296 21.5419 15.6517 
21.526 24.605 15.7846 
27.3302 24.3696 12.8835 
27.5073 21.6606 12.8897 
27.3692 21.7397 15.7931 
27.2417 24.3708 15.8333 
25.8232 23.2008 14.3846 
2.93904 25.7776 14.2195 
1.55053 27.273 12.9064 
1.51286 27.1685 15.7724 
0.0233809 28.712 14.3722 
7.29809 27.144 12.9408 
4.2399 27.182 12.8977 
5.84268 28.688 14.2991 
4.23828 27.3592 15.8076 
7.19639 27.5612 16.043 
5.82198 25.9933 14.3985 
8.70794 25.9582 14.3233 
10.2493 27.4359 12.911 
11.4335 25.8395 14.3057 
8.61108 28.6132 14.4096 
10.1317 27.5229 15.9736 
15.8338 27.5324 13.111 
12.6846 27.5433 13.0078 
12.9506 24.64 12.7486 
14.2694 26.0458 14.3156 
12.724 27.3527 15.7264 
15.7641 27.4107 15.6921 
17.2739 25.8465 14.2815 
18.3837 27.2986 12.7191 
19.9058 28.5201 14.3255 
18.5914 27.1644 15.8245 
19.8881 25.6555 14.3838 
24.4981 27.3614 12.8583 
21.555 27.346 12.809 
22.9118 26.0393 14.1725 
24.4775 24.6214 15.8943 
21.4457 27.2126 15.6399 
24.3844 27.315 15.7292 
28.6591 25.8793 14.3133 
27.3147 27.1388 12.9365 
25.9735 28.6562 14.334 
27.452 27.2543 15.8584 
25.7852 25.9152 14.5186 
1.46298 1.57803 18.6472 
2.69654 2.97217 17.2153 
0.141396 3.06517 17.3019 
2.748 0.0581153 17.2824 
0.00497197 0.0734973 17.2869 
2.70842 2.82711 19.9493 
0.16195 2.82824 20.092 
2.86243 0.0692917 20.2537 
4.18063 1.38885 18.6462 
7.11791 1.52228 18.9593 
5.6706 2.69556 17.3108 
5.7531 2.98702 20.3151 
5.77945 0.0217873 20.3232 
10.0875 1.45566 18.7716 
8.49444 2.82509 17.3417 
11.2745 2.91478 17.0612 
11.6042 0.184687 17.3895 
8.47689 0.157409 17.4627 
8.79463 2.87077 20.2039 
11.6831 2.91773 20.0503 
11.6731 0.139576 20.2409 
8.59303 0.127238 20.2933 
12.8871 1.55872 18.6273 
15.8031 1.55376 18.5754 
14.3832 2.89695 17.002 
14.5027 0.0394008 17.1685 
14.3815 2.98527 20.056 
14.3737 0.0437726 20.1063 
18.7347 1.34428 18.5811 
17.2341 2.92059 17.2874 
19.9367 2.95237 17.2629 
17.3243 2.96087 20.033 
20.1234 2.79884 20.0493 
17.1911 0.105041 20.0916 
21.3072 1.44749 18.5379 
22.9908 2.84134 17.3869 
24.4097 1.46985 18.751 
22.9916 0.123624 17.1864 
23.1852 2.85638 19.9451 
22.9075 0.0544216 20.0776 
27.3413 1.33249 18.7273 
26.0181 2.94109 17.2973 
25.9354 0.0380081 17.1854 
25.8726 2.828 20.1387 
25.8466 0.0365102 20.0948 
1.43771 4.45676 18.5217 
1.39658 7.33119 18.647 
2.62599 5.73659 17.0693 
2.73707 5.95333 19.9866 
4.36897 4.34242 18.6416 
4.22218 7.23203 18.5709 
7.26465 4.22709 18.6731 
5.62787 5.71776 17.3262 