ITEM: TIMESTEP
82042
ITEM: NUMBER OF ATOMS
2001
ITEM: BOX BOUNDS pp pp pp
0.0000000000000000e+00 2.8712000000000000e+01
0.0000000000000000e+00 2.8712000000000000e+01
0.0000000000000000e+00 2.8712000000000000e+01
ITEM: ATOMS x y z c_cna 
1.43558 1.44579 1.42168 3 
2.87054 2.88169 2.85703 3 
2.86999 0.0101458 2.85644 3 
0.000683096 2.88138 2.85737 3 
0.000640615 0.00977835 2.85701 3 
4.30572 1.44623 1.42109 3 
7.17713 1.44628 1.42123 3 
5.74079 2.88242 2.85637 3 
5.73937 0.0111395 2.85501 3 
10.0496 1.4452 1.4225 3 
8.61302 2.8819 2.85713 3 
11.4855 2.88054 2.85856 3 
8.61126 0.0111098 2.85547 3 
11.4849 0.0090562 2.85801 3 
12.9212 1.44418 1.42346 3 
15.7921 1.44419 1.42349 3 
14.3566 2.88 2.8591 3 
14.3567 0.00783251 2.85927 3 
18.6638 1.44529 1.42254 3 
17.2278 2.88057 2.85858 3 
20.1004 2.88197 2.85715 3 
20.1022 0.0112317 2.85549 3 
17.2285 0.00914032 2.85806 3 
22.9727 2.88251 2.8564 3 
24.4077 1.44631 1.4211 3 
21.5363 1.44637 1.42123 3 
22.974 0.0112146 2.85504 3 
27.2777 1.44581 1.42169 3 
25.8429 2.88174 2.85706 3 
25.8433 0.0101526 2.85646 3 
1.43586 4.31714 1.42213 3 
1.43612 7.18785 1.4223 3 
2.87116 5.75259 2.8575 3 
0.000699117 5.75248 2.85758 3 
4.30654 4.31739 1.42193 3 
7.17821 4.31711 1.42232 3 
4.30727 7.18789 1.42246 3 
7.17888 7.18754 1.42294 3 
5.74229 5.7526 2.85765 3 
10.0501 4.3163 1.42311 3 
10.0503 7.18709 1.42348 3 
8.61423 5.75195 2.85846 3 
11.4858 5.7512 2.85925 3 
12.9212 4.31573 1.42357 3 
15.7921 4.31574 1.42359 3 
12.9213 7.18678 1.42375 3 
15.792 7.18676 1.4238 3 
14.3566 5.75087 2.85956 3 
18.6633 4.31632 1.42312 3 
18.663 7.18708 1.4235 3 
17.2276 5.75117 2.85927 3 
20.0992 5.75196 2.85847 3 
21.5352 4.31717 1.42231 3 
21.5345 7.18753 1.42291 3 
22.9711 5.75262 2.85767 3 
24.4061 7.18784 1.4224 3 
24.4069 4.31743 1.42192 3 
27.2775 4.31715 1.42213 3 
27.2773 7.18785 1.42227 3 
25.8423 5.75261 2.85752 3 
1.43617 10.0581 1.42197 3 
2.87148 8.62313 2.85745 3 
2.87137 11.4929 2.85707 3 
0.000707553 8.62302 2.85742 3 
0.000672689 11.4929 2.85704 3 
4.30742 10.0581 1.42215 3 
7.17898 10.058 1.42262 3 
5.74289 8.62307 2.85778 3 
5.7427 11.4929 2.85732 3 
10.0503 10.0579 1.42307 3 
8.61454 8.62276 2.85844 3 
11.4858 8.62245 2.85897 3 
8.61436 11.493 2.85793 3 
11.4857 11.4931 2.85846 3 
12.9212 10.0578 1.42331 3 
15.7921 10.0578 1.42329 3 
14.3566 8.62236 2.85914 3 
14.3567 11.4931 2.85863 3 
18.6631 10.0579 1.42304 3 
17.2275 8.62245 2.85896 3 
20.0988 8.62275 2.85841 3 
17.2277 11.4931 2.85843 3 
20.0991 11.493 2.85791 3 
21.5344 10.0579 1.42258 3 
22.9706 8.62302 2.85776 3 
22.9707 11.4928 2.85731 3 
24.406 10.058 1.42209 3 
27.2772 10.058 1.42191 3 
25.8419 8.62307 2.85745 3 
25.842 11.4928 2.85707 3 
1.43586 12.9278 1.42124 3 
1.43537 15.7981 1.42042 3 
2.87041 14.3624 2.85619 3 
0.000634107 14.3628 2.85645 3 
4.3052 15.7972 1.41962 3 
4.30678 12.9277 1.4212 3 
7.17847 12.9279 1.42164 3 
7.17721 15.7974 1.4199 3 
5.74124 14.362 2.8558 3 
10.05 12.9281 1.42209 3 
10.0495 15.798 1.42054 3 
8.61353 14.3626 2.85648 3 
11.4854 14.363 2.85713 3 
12.9212 12.9282 1.42238 3 
15.7922 12.9282 1.42237 3 
12.9211 15.7982 1.42091 3 
15.7924 15.7982 1.42091 3 
14.3567 14.3631 2.85736 3 
18.6634 12.9281 1.42209 3 
18.664 15.7979 1.42051 3 
17.228 14.363 2.85711 3 
20.0999 14.3625 2.85644 3 
21.535 12.9278 1.42157 3 
21.5362 15.7973 1.41981 3 
22.9722 14.3619 2.8558 3 
24.4082 15.7971 1.41956 3 
24.4066 12.9276 1.42116 3 
27.2775 12.9278 1.4212 3 
27.2779 15.798 1.4204 3 
25.8429 14.3623 2.85619 3 
1.43509 18.6695 1.42007 3 
2.8693 17.2328 2.85509 3 
2.86903 20.105 2.85488 3 
0.000617322 17.2336 2.85589 3 
0.000575277 20.1055 2.8558 3 
4.30425 18.6686 1.41881 3 
7.17517 18.6675 1.41821 3 
5.73813 17.2306 2.85293 3 
5.737 20.103 2.85214 3 
10.0489 18.6687 1.41972 3 
8.61185 17.2314 2.85383 3 
11.4849 17.2324 2.85492 3 
8.6082 20.1007 2.85133 3 
11.4846 20.1036 2.85474 3 
12.921 18.6694 1.42043 3 
15.7925 18.6694 1.42042 3 
14.3567 17.2326 2.85528 3 
14.3568 20.1045 2.85546 3 
18.6646 18.6687 1.41968 3 
17.2285 17.2324 2.85492 3 
20.1016 17.2313 2.85377 3 
17.229 20.1036 2.85472 3 
20.1053 20.1007 2.85129 3 
21.5383 18.6674 1.41815 3 
24.4091 18.6685 1.41875 3 
22.9753 17.2305 2.8529 3 
22.9764 20.1029 2.8521 3 
27.2781 18.6695 1.42004 3 
25.844 17.2327 2.8551 3 
25.8442 20.1049 2.85486 3 
1.43506 21.5417 1.42021 3 
2.86925 22.9776 2.85524 3 
1.43515 24.4139 1.4206 3 
0.000538797 22.9777 2.8561 3 
4.30454 24.414 1.41958 3 
4.30417 21.5413 1.41899 3 
7.17481 21.5404 1.41856 3 
5.73749 22.977 2.85287 3 
7.1754 24.4137 1.41952 3 
10.0474 21.5401 1.42004 3 
8.60835 22.9756 2.85279 3 
11.4818 22.9748 2.856 3 
10.0477 24.413 1.42139 3 
12.9207 21.5416 1.42179 3 
15.7928 21.5416 1.42175 3 
14.3568 22.977 2.85836 3 
15.7934 24.4126 1.42343 3 
12.9202 24.4126 1.42342 3 
18.6662 21.5401 1.41999 3 
17.2317 22.9748 2.85599 3 
20.1051 22.9757 2.85276 3 
18.6658 24.4131 1.42137 3 
21.5386 21.5403 1.41848 3 
24.4091 21.5412 1.41892 3 
22.9758 22.977 2.85287 3 
24.4087 24.414 1.41957 3 
21.538 24.4138 1.41948 3 
27.2781 21.5417 1.42017 3 
25.8439 22.9776 2.85525 3 
27.278 24.4139 1.42059 3 
1.43536 27.286 1.42115 3 
2.86958 25.85 2.85582 3 
0.000569505 25.8499 2.85656 3 
4.30504 27.2864 1.42031 3 
7.17617 27.2864 1.42037 3 
5.73835 25.8506 2.85396 3 
10.0487 27.2855 1.4221 3 
8.60971 25.8503 2.85432 3 
11.4832 25.8485 2.85774 3 
12.9211 27.2839 1.42399 3 
15.7924 27.284 1.42402 3 
14.3568 25.8465 2.86035 3 
18.6648 27.2856 1.42212 3 
17.2303 25.8485 2.85775 3 
20.1037 25.8504 2.85432 3 
21.5373 27.2865 1.42034 3 
22.975 25.8506 2.85397 3 
24.4083 27.2864 1.4203 3 
27.2779 27.286 1.42114 3 
25.8436 25.8501 2.85587 3 
1.43537 1.44559 4.29272 3 
1.43533 1.44533 7.16453 3 
2.87011 2.88146 5.72841 3 
0.000714947 2.88118 5.72871 3 
2.86976 0.00982436 5.7281 3 
0.000658015 0.0095057 5.72858 3 
7.17384 1.44827 4.29006 3 
4.30458 1.44643 4.29181 3 
4.30429 1.4459 7.16397 3 
7.17321 1.44652 7.1634 3 
5.73973 2.88209 5.72785 3 
5.73789 0.0113761 5.72629 3 
10.0474 1.44715 4.29159 3 
10.0463 1.44444 7.16554 3 
8.61142 2.88167 5.72841 3 
11.485 2.87912 5.73104 3 
11.4809 0.013493 5.72487 3 
8.60451 0.0159549 5.72177 3 
12.921 1.44486 4.29406 3 
15.7923 1.44488 4.29404 3 
12.9214 1.43972 7.17041 3 
15.7919 1.43975 7.1704 3 
14.3566 2.87792 5.73227 3 
14.3567 0.00962583 5.72859 3 
18.666 1.44724 4.29162 3 
18.6671 1.44456 7.16558 3 
17.2283 2.87915 5.73105 3 
20.102 2.88171 5.72844 3 
17.2325 0.0135744 5.72489 3 
20.1089 0.0160968 5.72183 3 
21.5396 1.44837 4.29012 3 
24.4088 1.4465 4.29184 3 
21.5402 1.44663 7.16349 3 
22.9737 2.88219 5.72792 3 
24.4091 1.44601 7.16405 3 
22.9755 0.011494 5.72637 3 
27.278 1.44562 4.29275 3 
27.2781 1.4454 7.16455 3 
25.8433 2.88155 5.72846 3 
25.8436 0.0098898 5.72815 3 
1.43564 4.31696 4.29296 3 
1.43583 7.188 4.29288 3 
1.4354 4.31715 7.16428 3 
1.4356 7.18833 7.16417 3 
2.87049 5.75297 5.72825 3 
0.000735037 5.75262 5.72857 3 
4.3057 4.31733 4.29267 3 
4.30639 7.18832 4.29272 3 
7.17696 4.31729 4.29284 3 
7.17803 7.1881 4.29317 3 
4.30452 4.31814 7.16343 3 
4.30553 7.18901 7.16372 3 
7.17375 4.32003 7.16164 3 
5.74064 5.75378 5.72757 3 
7.17686 7.18904 7.16374 3 
10.0495 4.31599 4.29427 3 
10.05 7.18738 4.29412 3 
10.0473 4.31862 7.16286 3 
8.61289 5.75316 5.72824 3 
10.0494 7.18789 7.16491 3 
11.4854 5.75179 5.72971 3 
12.9212 4.31489 4.29541 3 
15.7921 4.31489 4.29542 3 
12.9212 7.18689 4.2947 3 
15.7921 7.18687 4.29466 3 
12.9209 4.31624 7.16526 3 
15.7924 4.31621 7.16523 3 
12.9212 7.18693 7.16602 3 
14.3567 5.75125 5.73025 3 
15.7921 7.18692 7.166 3 
18.6638 4.31601 4.2943 3 
18.6633 7.18736 4.29408 3 
18.6661 4.31863 7.16288 3 
17.2279 5.75177 5.72969 3 
18.6639 7.18786 7.16496 3 
20.1005 5.75317 5.72829 3 
24.407 7.18831 4.29275 3 
24.4089 4.31823 7.16353 3 
21.5365 4.31736 4.2929 3 
21.5353 7.18806 4.29318 3 
24.4077 4.31739 4.2927 3 
21.5396 4.32008 7.16173 3 
21.5365 7.18906 7.16383 3 
22.9728 5.75381 5.72769 3 
24.4079 7.18907 7.16382 3 
27.2778 4.317 4.29299 3 
27.2776 7.188 4.29293 3 
27.2781 4.31721 7.16433 3 
25.843 5.75301 5.7283 3 
27.2779 7.18837 7.16419 3 
1.43596 10.0582 4.29281 3 
1.43583 10.0585 7.16426 3 
2.87102 8.6235 5.72837 3 
2.8711 11.4931 5.72843 3 
0.000688039 11.4931 5.72846 3 
0.000726294 8.62329 5.72849 3 
4.30688 10.0582 4.2929 3 
7.17846 10.0581 4.2934 3 
4.30648 10.0587 7.16426 3 
5.74211 8.62362 5.72847 3 
7.17799 10.0585 7.16462 3 
5.74225 11.4932 5.72862 3 
10.0501 10.058 4.29414 3 
8.614 8.62317 5.72922 3 
10.0498 10.0582 7.16539 3 
11.4857 8.62265 5.73009 3 
8.61392 11.4932 5.72917 3 
11.4855 11.4933 5.72991 3 
12.9212 10.0579 4.29459 3 
15.7921 10.0579 4.29458 3 
12.9211 10.0579 7.16605 3 
14.3567 8.62243 5.7304 3 
15.7922 10.0579 7.16602 3 
14.3567 11.4933 5.73019 3 
18.6633 10.0579 4.29412 3 
20.0993 8.6231 5.72924 3 
17.2277 8.6226 5.73008 3 
18.6636 10.0581 7.16538 3 
17.2279 11.4933 5.72985 3 
20.0994 11.4931 5.72916 3 
21.5349 10.0581 4.29343 3 
24.4065 10.0581 4.29291 3 
21.5354 10.0585 7.16466 3 
22.9713 8.62358 5.72851 3 
22.9711 11.493 5.72867 3 
24.4069 10.0586 7.16436 3 
27.2774 10.0581 4.29279 3 
25.8425 8.6235 5.72842 3 
27.2777 10.0585 7.1643 3 
25.8423 11.493 5.7285 3 
1.43568 12.9278 4.29245 3 
1.43512 15.7979 4.29186 3 
1.43564 12.9281 7.1643 3 
1.43514 15.7981 7.1641 3 
2.87017 14.3625 5.72799 3 
0.000673451 14.3629 5.72822 3 
4.3042 15.7966 4.29094 3 
4.30622 12.9276 4.29238 3 
7.17772 12.9277 4.29259 3 
7.17507 15.7959 4.28993 3 
4.30603 12.9279 7.16426 3 
4.30413 15.7969 7.16363 3 
7.17742 12.928 7.16436 3 
5.74066 14.362 5.72765 3 
7.17465 15.7963 7.16284 3 
10.0497 12.9281 4.29336 3 
10.0487 15.7973 4.29125 3 
10.0492 12.9286 7.16482 3 
8.61253 14.3625 5.7277 3 
10.0472 15.7977 7.16259 3 
11.485 14.3635 5.72876 3 
12.9211 12.9283 4.29388 3 
15.7923 12.9283 4.29387 3 
12.9209 15.7979 4.2921 3 
15.7925 15.7979 4.29209 3 
12.9209 12.929 7.16547 3 
15.7924 12.9289 7.16546 3 
12.9206 15.7993 7.16422 3 
14.3567 14.3637 5.72923 3 
15.7928 15.7993 7.16421 3 
18.6637 12.9281 4.29332 3 
18.6647 15.7972 4.29127 3 
18.6642 12.9285 7.16481 3 
17.2284 14.3634 5.72876 3 
18.6663 15.7976 7.1626 3 
20.1009 14.3624 5.72772 3 
21.5357 12.9276 4.29258 3 
21.5383 15.7958 4.28994 3 
24.4092 15.7965 4.291 3 
24.4072 12.9275 4.2924 3 
21.536 12.928 7.1644 3 
21.5388 15.7962 7.1629 3 
22.9727 14.3619 5.7277 3 
24.4074 12.9278 7.16436 3 
24.4093 15.7968 7.16372 3 
27.2777 12.9277 4.2925 3 
27.2782 15.7978 4.29191 3 
27.2778 12.928 7.16435 3 
25.8432 14.3624 5.72808 3 
27.2783 15.7981 7.16414 3 
1.4348 18.6692 4.2914 3 
1.43488 18.6694 7.16377 3 
2.86905 17.2327 5.72726 3 
2.86878 20.1045 5.72673 3 
0.000645213 17.2337 5.72787 3 
0.000597194 20.1054 5.72768 3 
4.30239 18.6671 4.28931 3 
7.1688 18.6619 4.2842 3 
4.30253 18.6672 7.16263 3 
5.73696 17.2299 5.72534 3 
7.16806 18.6618 7.15944 3 
5.73447 20.1005 5.72279 3 
10.0471 18.6649 4.28737 3 
8.60812 17.229 5.72318 3 
10.0399 18.6613 7.15506 3 
11.4845 17.2322 5.72618 3 
8.59427 20.0883 5.71063 3 
11.485 20.0987 5.72119 3 
12.9208 18.6664 4.28896 3 
15.7927 18.6664 4.28894 3 
12.9211 18.6686 7.16208 3 
14.3568 17.2329 5.72709 3 
15.7925 18.6685 7.16205 3 
14.3568 20.0999 5.72239 3 
18.6665 18.6649 4.28735 3 
17.229 17.2322 5.72618 3 
18.6736 18.6612 7.15506 3 
20.1054 17.2289 5.7232 3 
17.2286 20.0987 5.72116 3 
20.1193 20.0882 5.71062 3 
21.5446 18.6618 4.28419 3 
24.4109 18.667 4.28932 3 
21.5454 18.6617 7.15952 3 
22.9764 17.2298 5.72539 3 
22.9789 20.1004 5.72286 3 
24.4108 18.6671 7.16272 3 
27.2785 18.6691 4.29141 3 
25.8443 17.2327 5.72732 3 
27.2784 18.6693 7.16382 3 
25.8445 20.1044 5.72679 3 
1.43484 21.5414 4.2915 3 
1.435 24.4137 4.29192 3 
1.43504 21.5414 7.16369 3 
2.86923 22.9772 5.72706 3 
1.43527 24.4135 7.16403 3 
0.000556306 22.9776 5.72792 3 
4.30386 24.4131 7.16267 3 
4.30254 21.5403 4.28935 3 
4.30322 24.4137 4.29015 3 
7.1681 21.537 4.28408 3 
7.16973 24.4137 4.28601 3 
4.30287 21.5397 7.162 3 
7.1654 21.5331 7.15547 3 
5.73571 22.9758 5.72357 3 
7.16877 24.4122 7.15803 3 
10.0399 21.5326 4.28367 3 
10.0415 24.4116 4.28719 3 
10.0061 21.502 7.12446 3 
8.59615 22.9717 5.71343 3 
11.4689 22.9628 5.71611 3 
10.0179 24.4124 7.1385 3 
12.9211 21.5395 4.29102 3 
15.7925 21.5396 4.29102 3 
15.7972 24.409 4.29367 3 
12.9164 24.409 4.29365 3 
12.9314 21.5372 7.15973 3 
15.7822 21.5372 7.15972 3 
14.3568 22.978 5.73179 3 
12.8901 24.3914 7.15498 3 
15.8235 24.3915 7.15494 3 
18.6736 21.5326 4.28364 3 
18.672 24.4117 4.28724 3 
18.7074 21.502 7.12449 3 
17.2446 22.9628 5.71615 3 
20.1174 22.9718 5.71346 3 
18.6957 24.4125 7.13851 3 
24.41 24.4137 4.29021 3 
21.5453 21.537 4.28408 3 
24.4107 21.5402 4.28941 3 
21.5436 24.4138 4.28605 3 
21.548 21.533 7.15556 3 
22.9776 22.9758 5.72366 3 
24.4094 24.4131 7.1628 3 
24.4104 21.5396 7.16206 3 
21.5446 24.4123 7.15815 3 
27.2783 21.5414 4.29154 3 
27.2781 24.4137 4.29195 3 
27.2782 21.5414 7.16374 3 
25.844 22.9772 5.72713 3 
27.2779 24.4135 7.16407 3 
1.43517 27.2858 4.29236 3 
1.43532 27.2855 7.16439 3 
2.86956 25.8497 5.72763 3 
0.0006008 25.8496 5.72832 3 
4.30382 27.2865 4.29096 3 
7.17153 27.2884 4.28781 3 
4.30407 27.2859 7.16342 3 
5.737 25.8504 5.72502 3 
7.17029 27.2883 7.16025 3 
10.0445 27.2877 4.28914 3 
8.60036 25.8534 5.71754 3 
10.029 27.3001 7.14765 3 
11.4758 25.8494 5.72154 3 
12.9203 27.2836 4.29415 3 
15.7931 27.2836 4.29418 3 
12.9115 27.295 7.15389 3 
14.3567 25.8404 5.72845 3 
15.8019 27.2951 7.15389 3 
18.6689 27.2878 4.28918 3 
17.2376 25.8495 5.72156 3 
18.6844 27.3002 7.14773 3 
20.1131 25.8535 5.7176 3 
21.5419 27.2885 4.28787 3 
24.4095 27.2865 4.29105 3 
21.5431 27.2884 7.16032 3 
22.9763 25.8505 5.72511 3 
24.4093 27.286 7.16351 3 
27.2781 27.2858 4.29241 3 
25.8437 25.8498 5.72771 3 
27.278 27.2855 7.16443 3 
2.86982 2.88176 8.60006 3 
2.87001 0.00955393 8.60042 3 
1.4354 1.44556 10.0365 3 
2.86969 2.88231 11.4723 3 
2.87031 0.00999921 11.4727 3 
0.000735904 2.88133 8.60044 3 
0.000752761 2.88169 11.4724 3 
0.000686132 0.00974012 11.4726 3 
0.000685059 0.00940762 8.60062 3 
5.73789 2.88367 8.59847 3 
5.73839 0.0100867 8.59984 3 
5.73869 0.0114376 11.4726 3 
4.30416 1.4465 10.036 3 
7.17028 1.44979 10.0336 3 
5.73706 2.88496 11.4715 3 
8.60444 2.88832 8.59393 3 
11.4808 2.88534 8.59648 3 
11.4834 0.00150096 8.60858 3 
11.4399 0.0595724 11.4401 3 
8.60235 0.0178704 11.4699 3 
10.029 1.46249 10.0218 3 
8.6003 2.89264 11.4684 3 
11.4757 2.88876 11.4726 3 
8.60641 0.00952625 8.60045 3 
14.3566 2.88167 8.60045 3 
14.3567 0.112309 11.4769 5 
12.9114 1.45638 10.027 3 
15.8019 1.45639 10.027 3 
14.3567 2.8819 11.4817 3 
17.2325 2.88534 8.5965 3 
20.1089 2.88837 8.59401 3 
20.107 0.00967638 8.60052 3 
17.2734 0.0596293 11.4402 3 
18.6844 1.46254 10.0219 3 
17.2376 2.88874 11.4726 3 
20.1131 2.89271 11.4685 3 
17.23 0.00159403 8.6086 3 
20.1111 0.0180149 11.47 3 
22.9756 2.88379 8.59857 3 
21.5432 1.44992 10.0337 3 
22.9764 2.88513 11.4717 3 
24.4093 1.44667 10.0361 3 
22.975 0.0102327 8.59996 3 
22.9748 0.0116146 11.4726 3 
25.8437 2.88191 8.60012 3 
27.2781 1.44565 10.0365 3 
25.8438 2.88245 11.4723 3 
25.8434 0.00965376 8.60045 3 
25.8432 0.0101082 11.4727 3 
2.86998 5.75347 8.59976 3 
1.43529 4.31749 10.0361 3 
1.43545 7.18877 10.036 3 
2.86966 5.75403 11.4719 3 
0.000768374 5.75293 8.60014 3 
0.000792066 5.75334 11.4722 3 
5.73923 5.75502 8.59873 3 
4.30385 4.31892 10.0354 3 
4.30492 7.18969 10.0356 3 
7.17146 4.32226 10.0335 3 
7.17592 7.18982 10.0355 3 
5.73826 5.75606 11.4713 3 
8.61108 5.75476 8.59882 3 
11.4848 5.75233 8.60095 3 
10.0444 4.32109 10.0342 3 
10.0485 7.18822 10.0365 3 
8.60954 5.75589 11.4716 3 
11.483 5.75261 11.4735 3 
14.3567 5.75109 8.60224 3 
12.9202 4.31614 10.0384 3 
15.7931 4.31612 10.0384 3 
12.9209 7.18638 10.0381 3 
15.7924 7.18634 10.0381 3 
14.3566 5.74997 11.4755 3 
17.2285 5.75226 8.60093 3 
20.1023 5.75476 8.59889 3 
18.6689 4.32109 10.0342 3 
18.6648 7.18819 10.0365 3 
17.2302 5.75254 11.4735 3 
20.1038 5.7559 11.4717 3 
22.9742 5.75512 8.59884 3 
21.542 4.32236 10.0336 3 
21.5374 7.18985 10.0356 3 
22.9751 5.75617 11.4714 3 
24.4096 4.31907 10.0355 3 
24.4085 7.18978 10.0356 3 
25.8435 5.75357 8.59984 3 
27.2782 4.31759 10.0362 3 
27.2781 7.1888 10.036 3 
25.8438 5.75414 11.472 3 
2.87067 8.62398 8.59995 3 
2.87099 11.4935 8.60026 3 
1.43576 10.0589 10.0361 3 
2.87044 8.62448 11.472 3 
2.871 11.4939 11.4723 3 
0.000772958 11.4939 11.4723 3 
0.000784652 8.62411 11.4721 3 
0.000761322 8.62366 8.60012 3 
0.000746559 11.4935 8.60029 3 
5.74147 8.62416 8.59988 3 
5.74205 11.4935 8.60034 3 
4.30624 10.0591 10.0361 3 
7.17767 10.0589 10.0362 3 
5.74106 8.62471 11.4719 3 
5.74202 11.4939 11.4722 3 
8.61338 8.62352 8.60044 3 
11.4854 8.62253 8.60153 3 
8.61366 11.4936 8.60067 3 
11.4853 11.4936 8.60121 3 
11.4848 8.62271 11.4728 3 
10.0494 10.0584 10.0367 3 
8.6128 8.62395 11.4722 3 
8.61358 11.494 11.4722 3 
11.4852 11.494 11.4723 3 
14.3567 8.62213 8.60205 3 
14.3567 11.4937 8.60151 3 
12.921 10.058 10.0373 3 
15.7923 10.0579 10.0372 3 
14.3567 8.62201 11.4733 3 
14.3567 11.494 11.4723 3 
17.2279 8.62251 8.60152 3 
20.1 8.62351 8.60051 3 
17.2281 11.4936 8.60119 3 
20.0997 11.4935 8.60068 3 
18.6639 10.0583 10.0367 3 
17.2285 8.62267 11.4729 3 
20.1005 8.62392 11.4722 3 
17.2282 11.4939 11.4723 3 
20.0998 11.4939 11.4723 3 
22.9719 8.62418 8.6 3 
22.9714 11.4935 8.60043 3 
21.5357 10.0589 10.0363 3 
22.9723 8.62474 11.472 3 
22.9714 11.4939 11.4723 3 
24.4072 10.059 10.0362 3 
25.8428 8.62399 8.60004 3 
25.8425 11.4934 8.60034 3 
27.2778 10.0589 10.0362 3 
25.8431 8.62451 11.4721 3 
25.8426 11.4939 11.4724 3 
2.87022 14.3629 8.6003 3 
0.000717379 14.3633 8.60038 3 
1.43568 12.9285 10.0364 3 
1.43527 15.7986 10.0365 3 
2.87045 14.3634 11.4725 3 
0.000773576 14.3637 11.4725 3 
5.74073 14.3625 8.60013 3 
4.3061 12.9283 10.0364 3 
4.30447 15.7975 10.0364 3 
7.17747 12.9286 10.0363 3 
7.17517 15.7973 10.0362 3 
5.74108 14.3631 11.4725 3 
8.61242 14.3633 8.60001 3 
11.4845 14.3645 8.60022 3 
10.0492 12.9292 10.0364 3 
10.0475 15.799 10.0356 3 
8.61282 14.364 11.4722 3 
11.4848 14.3652 11.4717 3 
14.3567 14.365 8.60068 3 
12.9208 12.9296 10.0365 3 
15.7926 12.9296 10.0365 3 
12.92 15.801 10.0352 3 
15.7934 15.801 10.0351 3 
14.3567 14.3659 11.4712 3 
17.229 14.3644 8.60019 3 
20.101 14.3632 8.60004 3 
18.6642 12.9291 10.0364 3 
18.666 15.799 10.0356 3 
17.2286 14.3652 11.4717 3 
20.1006 14.3639 11.4723 3 
22.9727 14.3624 8.60025 3 
21.5359 12.9285 10.0364 3 
21.5383 15.7971 10.0363 3 
22.9724 14.3631 11.4726 3 
24.409 15.7974 10.0366 3 
24.4074 12.9282 10.0365 3 
25.8432 14.3628 8.6004 3 
27.2778 12.9284 10.0364 3 
27.2782 15.7986 10.0365 3 
25.8431 14.3633 11.4727 3 
2.86927 17.2332 8.60004 3 
2.86925 20.1049 8.59968 3 
1.43509 18.6698 10.0363 3 
2.86964 17.2337 11.4726 3 
2.86962 20.1054 11.4724 3 
0.000737233 17.2345 11.4726 3 
0.000690695 20.1061 11.4723 3 
0.000644884 20.1057 8.60005 3 
0.000687997 17.234 8.60023 3 
5.73741 17.2308 8.59944 3 
5.73572 20.1013 8.59824 3 
4.30321 18.668 10.0362 3 
7.16971 18.6637 10.0362 3 
5.73826 17.2317 11.4731 3 
5.73699 20.1027 11.473 3 
8.60823 17.2305 8.5981 3 
11.4817 17.2336 8.59734 3 
8.59612 20.0911 8.59423 3 
11.469 20.0937 8.58529 3 
10.0414 18.6648 10.0342 3 
8.60958 17.2319 11.4728 3 
11.4831 17.2353 11.4711 3 
8.60032 20.0951 11.476 3 
11.4758 20.0991 11.472 3 
14.3567 17.2359 8.59954 3 
14.3568 20.1093 8.60059 3 
12.9163 18.6712 10.0315 3 
15.7972 18.6712 10.0315 3 
14.3567 17.2379 11.469 3 
14.3568 20.1059 11.4629 3 
17.2318 17.2336 8.59732 3 
20.1053 17.2304 8.59818 3 
17.2447 20.0936 8.58527 3 
20.1174 20.091 8.59432 3 
18.6721 18.6648 10.0342 3 
17.2303 17.2353 11.4711 3 
20.1039 17.2319 11.4729 3 
17.2377 20.099 11.472 3 
20.1132 20.0951 11.4761 3 
22.976 17.2306 8.59955 3 
22.9777 20.1012 8.59836 3 
21.5438 18.6636 10.0364 3 
22.9752 17.2316 11.4732 3 
22.9764 20.1027 11.4731 3 
24.4102 18.6679 10.0363 3 
25.8441 17.2331 8.60012 3 
25.8441 20.1048 8.59975 3 
27.2783 18.6698 10.0363 3 
25.8439 17.2337 11.4728 3 
25.8438 20.1054 11.4725 3 
2.86993 22.9772 8.59959 3 
0.000615206 22.9777 8.60011 3 
1.43531 21.5417 10.0361 3 
2.87027 22.9777 11.4722 3 
0.000671681 22.9781 11.4723 3 
1.43561 24.4137 10.0363 3 
5.73745 22.9749 8.59737 3 
4.30387 21.5404 10.0357 3 
7.17207 24.411 10.0336 3 
4.3051 24.4131 10.0357 3 
7.16881 21.5356 10.0348 3 
5.73865 22.9761 11.4722 3 
8.59687 22.9649 8.58746 3 
11.3817 22.8803 8.50297 3 
10.0141 24.4038 10.0265 3 
10.0178 21.516 10.0351 3 
8.60236 22.9697 11.4748 3 
11.4401 22.9281 11.5047 3 
14.3568 23.0295 8.65212 5 
12.5193 24.2638 9.88643 5 
16.1944 24.2638 9.88642 5 
14.3568 22.8755 11.4679 5 
15.8235 21.5324 10.0141 3 
12.8902 21.5324 10.0141 3 
17.3319 22.8804 8.50293 3 
20.1166 22.9649 8.58753 3 
18.6994 24.4039 10.0265 3 
17.2735 22.9281 11.5047 3 
20.1111 22.9697 11.4748 3 
18.6957 21.516 10.0351 3 
22.9759 22.9749 8.59747 3 
22.9748 22.9761 11.4723 3 
21.5446 21.5356 10.0349 3 
21.5414 24.411 10.0337 3 
24.4082 24.4131 10.0358 3 
24.4095 21.5403 10.0358 3 
25.8433 22.9771 8.59971 3 
27.2777 24.4137 10.0363 3 
27.278 21.5417 10.0362 3 
25.8431 22.9777 11.4722 3 
2.87021 25.8495 8.60008 3 
0.000652679 25.8495 8.60043 3 
1.43556 27.2856 10.0366 3 
2.8706 25.8499 11.4724 3 
0.000671275 25.8499 11.4725 3 
5.73863 25.8495 8.59859 3 
5.7399 25.8498 11.4724 3 
4.30493 27.2857 10.0364 3 
7.17282 27.2856 10.0364 3 
8.60234 25.852 8.59224 3 
11.44 25.882 8.55069 3 
10.0406 27.28 10.042 3 
8.60905 25.8498 11.4724 3 
11.5226 25.8498 11.4724 5 
14.3566 28.7039 8.61829 3 
14.3567 25.8452 8.49809 5 
15.7791 27.2486 10.0736 5 
14.3567 26.599 12.2213 5 
14.3568 25.1008 10.7234 5 
12.9343 27.2486 10.0736 5 
17.2735 25.882 8.55069 3 
20.1111 25.8522 8.59235 3 
20.1044 25.8499 11.4725 3 
18.6728 27.2802 10.0421 3 
17.1909 25.8498 11.4724 5 
22.9747 25.8496 8.59873 3 
24.4085 27.2858 10.0365 3 
22.9735 25.8499 11.4725 3 
21.5406 27.2858 10.0365 3 
25.8431 25.8495 8.60015 3 
25.8428 25.8499 11.4725 3 
27.2778 27.2856 10.0366 3 
1.43541 1.44607 12.9087 3 
2.86941 2.88298 14.345 3 
1.43522 1.44652 15.7811 3 
0.000764091 2.88219 14.3447 3 
2.87006 0.0106072 14.3452 3 
0.000730105 0.0101996 14.3448 3 
5.73757 0.0128437 14.3473 3 
4.30399 1.44738 12.909 3 
7.16884 1.4521 12.9098 3 
4.30303 1.44821 15.7827 3 
7.1655 1.45478 15.7891 3 
5.73583 2.88652 14.3463 3 
10.0177 1.4718 12.9095 3 
10.0061 1.4859 15.8201 3 
8.59609 2.89687 14.3503 3 
11.4688 2.89425 14.3593 3 
8.59686 0.0227894 14.3572 3 
11.3816 0.107406 14.4417 3 
12.89 1.4554 12.9306 3 
15.8234 1.45538 12.9306 3 
12.9313 1.45071 15.7849 3 
15.7821 1.45073 15.785 3 
14.3567 2.87861 14.344 3 
18.6956 1.47183 12.9096 3 
17.2445 2.89422 14.3593 3 
17.3318 0.107402 14.4418 3 
20.1173 2.89688 14.3504 3 
18.7073 1.48593 15.8202 3 
20.1166 0.0228929 14.3573 3 
22.9759 0.0129742 14.3474 3 
21.5446 1.45221 12.9099 3 
24.4095 1.44751 12.9091 3 
22.9777 2.88664 14.3464 3 
21.548 1.45484 15.7892 3 
24.4105 1.44832 15.7827 3 
27.2781 1.44613 12.9087 3 
27.2783 1.44659 15.7811 3 
25.8434 0.0106842 14.3452 3 
25.8441 2.88312 14.3451 3 
1.43519 4.318 12.9084 3 
1.43533 7.18925 12.9082 3 
2.8694 5.75469 14.3446 3 
0.000813436 5.75386 14.3445 3 
1.43506 4.31855 15.7809 3 
1.4353 7.18975 15.7806 3 
4.3033 4.31979 12.9083 3 
7.16972 4.3241 12.9082 3 
4.30449 7.19037 12.908 3 
7.17517 7.19062 12.9082 3 
5.73747 5.75715 14.345 3 
4.30268 4.32072 15.782 3 
4.30424 7.19104 15.781 3 
7.1681 4.32616 15.7851 3 
7.1747 7.19161 15.7817 3 
10.0414 4.32308 12.9103 3 
10.0474 7.1889 12.9089 3 
11.4817 5.75435 14.3472 3 
10.0398 4.32671 15.7895 3 
10.0472 7.19028 15.782 3 
8.6082 5.75746 14.3464 3 
12.9162 4.3167 12.913 3 
15.797 4.31667 12.913 3 
12.92 7.1869 12.9093 3 
15.7933 7.18687 12.9093 3 
15.7923 4.31936 15.7825 3 
12.921 4.3194 15.7825 3 
12.9206 7.18858 15.7803 3 
15.7927 7.18854 15.7804 3 
14.3566 5.752 14.345 3 
18.672 4.32306 12.9104 3 
18.6659 7.18885 12.9089 3 
20.1051 5.75742 14.3465 3 
18.6735 4.32666 15.7895 3 
18.6661 7.19021 15.782 3 
17.2316 5.75431 14.3472 3 
21.5437 4.32418 12.9083 3 
21.5382 7.19062 12.9083 3 
24.409 7.19042 12.9081 3 
21.5454 4.32617 15.7852 3 
21.5387 7.19156 15.7818 3 
24.4093 7.19104 15.781 3 
24.4109 4.32079 15.7821 3 
22.976 5.75721 14.3451 3 
24.4102 4.31993 12.9084 3 
27.2784 4.31808 12.9084 3 
27.2782 7.18929 12.9082 3 
27.2785 4.3186 15.781 3 
27.2784 7.18977 15.7806 3 
25.8442 5.75475 14.3446 3 
1.43574 10.0594 12.9082 3 
2.87107 11.4943 14.3443 3 
1.43579 10.0598 15.7804 3 
2.87032 8.62496 14.3443 3 
0.000817921 8.62456 14.3443 3 
0.000825835 11.4943 14.3444 3 
4.30613 10.0595 12.9081 3 
7.17747 10.0593 12.9081 3 
4.30617 10.06 15.7803 3 
7.1775 10.0598 15.7802 3 
5.74213 11.4943 14.3442 3 
5.74078 8.62531 14.3444 3 
10.0491 10.0588 12.9081 3 
11.4844 8.62345 14.3443 3 
11.4853 11.4943 14.3434 3 
8.6137 11.4943 14.3439 3 
8.61241 8.62461 14.3445 3 
10.0492 10.0593 15.7798 3 
12.9208 10.0583 12.9081 3 
15.7925 10.0583 12.9081 3 
14.3567 8.62291 14.3439 3 
12.921 10.0589 15.7791 3 
15.7924 10.0589 15.7792 3 
14.3567 11.4942 14.3431 3 
18.6642 10.0587 12.9082 3 
17.2281 11.4942 14.3434 3 
20.1009 8.62456 14.3446 3 
17.2289 8.62337 14.3443 3 
18.6641 10.0592 15.7798 3 
20.0997 11.4942 14.3439 3 
21.5359 10.0593 12.9082 3 
24.4073 10.0595 12.9082 3 
21.5359 10.0597 15.7803 3 
24.4074 10.0599 15.7804 3 
22.9714 11.4943 14.3443 3 
22.9727 8.6253 14.3444 3 
27.2778 10.0594 12.9083 3 
25.8425 11.4943 14.3444 3 
25.8432 8.62499 14.3443 3 
27.2779 10.0598 15.7804 3 
1.4358 12.9289 12.9085 3 
1.43548 15.799 12.9086 3 
1.43593 12.9293 15.7804 3 
1.4357 15.7994 15.7805 3 
2.87077 14.3638 14.3446 3 
0.000818916 14.3641 14.3445 3 
4.30631 12.9287 12.9084 3 
4.30499 15.7981 12.9089 3 
7.17768 12.929 12.9082 3 
7.17595 15.798 12.909 3 
5.74159 14.3636 14.3446 3 
4.30568 15.7987 15.7809 3 
4.30664 12.9292 15.7803 3 
7.17811 12.9293 15.78 3 
7.17699 15.7987 15.7808 3 
10.0494 12.9295 12.9078 3 
10.0485 15.7997 12.908 3 
11.4854 14.3653 14.343 3 
10.0498 12.9297 15.7792 3 
10.0495 15.7999 15.7796 3 
8.61343 14.3643 14.3441 3 
12.921 12.93 12.9073 3 
15.7924 12.9299 12.9073 3 
12.921 15.8015 12.9064 3 
15.7925 15.8015 12.9065 3 
12.9212 12.9299 15.7786 3 
15.7922 12.9299 15.7786 3 
12.9213 15.8008 15.7785 3 
15.7922 15.8008 15.7785 3 
14.3567 14.3657 14.3425 3 
18.664 12.9294 12.9078 3 
18.6649 15.7996 12.9081 3 
20.1 14.3642 14.3441 3 
17.228 14.3652 14.343 3 
18.6636 12.9296 15.7792 3 
18.664 15.7998 15.7797 3 
21.5358 12.9289 12.9083 3 
21.5375 15.7979 12.9091 3 
24.4085 15.798 12.909 3 
24.4072 12.9287 12.9086 3 
22.9719 14.3635 14.3447 3 
21.5354 12.9293 15.78 3 
21.5365 15.7986 15.7809 3 
24.4069 12.9291 15.7804 3 
24.4079 15.7986 15.7809 3 
27.2778 12.9289 12.9085 3 
27.2781 15.799 12.9087 3 
27.2777 12.9293 15.7804 3 
27.2779 15.7993 15.7805 3 
25.8428 14.3638 14.3447 3 
1.43529 18.6702 12.9085 3 
0.000800573 17.2348 14.3445 3 
1.43547 18.6705 15.7804 3 
2.87007 17.2342 14.3448 3 
2.86983 20.1059 14.3446 3 
0.000767078 20.1064 14.3443 3 
4.30387 18.6688 12.9091 3 
7.17145 18.6655 12.911 3 
5.7393 17.2327 14.3457 3 
4.30462 18.6695 15.7812 3 
7.17384 18.6676 15.783 3 
5.73794 20.104 14.3461 3 
10.0445 18.6667 12.9103 3 
11.4849 17.2355 14.3436 3 
10.0474 18.6691 15.7817 3 
8.60451 20.0993 14.3507 3 
8.61113 17.233 14.3457 3 
11.4809 20.1023 14.3481 3 
12.9203 18.6716 12.9061 3 
15.7932 18.6716 12.9062 3 
12.9211 18.6715 15.7794 3 
15.7925 18.6715 15.7794 3 
14.3568 20.106 14.3442 3 
14.3568 17.2367 14.3423 3 
18.669 18.6666 12.9104 3 
20.109 20.0992 14.3508 3 
20.1023 17.2329 14.3458 3 
18.6661 18.669 15.7818 3 
17.2326 20.1023 14.3482 3 
17.2286 17.2355 14.3436 3 
21.542 18.6654 12.9111 3 
24.4096 18.6687 12.9093 3 
21.5396 18.6676 15.783 3 
24.4089 18.6694 15.7812 3 
22.9742 17.2326 14.3459 3 
22.9755 20.1039 14.3462 3 
27.2782 18.6702 12.9086 3 
25.8437 20.1058 14.3447 3 
25.8435 17.2342 14.3449 3 
27.2781 18.6705 15.7804 3 
1.4356 24.4142 12.9084 3 
1.43541 21.5422 12.9083 3 
1.4354 21.5423 15.7803 3 
1.43544 24.4142 15.7805 3 
2.87005 22.9781 14.3444 3 
0.000736332 22.9783 14.3443 3 
4.30415 21.5411 12.9087 3 
4.30494 24.4139 12.9084 3 
7.1703 21.5378 12.911 3 
7.1728 24.4139 12.9083 3 
5.73844 22.9775 14.3449 3 
4.30438 21.5416 15.7808 3 
7.17328 21.541 15.7813 3 
4.30421 24.4137 15.7814 3 
7.17036 24.4113 15.7845 3 
10.0406 24.4195 12.9028 3 
10.0291 21.5252 12.9228 3 
10.0464 21.5431 15.7791 3 
10.0291 24.3995 15.7971 3 
11.4835 22.9861 14.3362 3 
8.60644 22.978 14.3443 3 
12.9344 24.4511 12.8712 5 
15.7792 24.4511 12.8712 5 
12.9116 21.5313 12.9177 3 
15.802 21.5313 12.9177 3 
14.3568 22.9957 14.3265 3 
12.9215 21.5479 15.7743 3 
15.7921 21.5479 15.7743 3 
12.9116 24.4046 15.7909 3 
15.802 24.4046 15.7909 3 
18.6729 24.4195 12.9028 3 
18.6845 21.5251 12.9229 3 
17.2301 22.9861 14.3362 3 
18.6671 21.5431 15.7792 3 
18.6844 24.3995 15.7972 3 
20.107 22.978 14.3444 3 
22.975 22.9775 14.3449 3 
21.5431 21.5378 12.9111 3 
24.4085 24.414 12.9085 3 
21.5406 24.414 12.9084 3 
24.4093 21.5411 12.9088 3 
21.5402 21.541 15.7813 3 
24.4091 21.5416 15.7808 3 
24.4092 24.4137 15.7814 3 
21.5431 24.4113 15.7846 3 
27.278 21.5421 12.9083 3 
27.2778 24.4141 12.9084 3 
27.2781 21.5422 15.7803 3 
27.278 24.4142 15.7804 3 
25.8434 22.9781 14.3444 3 
1.43566 27.2861 12.9087 3 
2.87031 25.8502 14.3448 3 
1.43542 27.2863 15.7808 3 
0.000702909 25.8502 14.3445 3 
4.30518 27.2865 12.9092 3 
7.1721 27.2886 12.9112 3 
4.30403 27.2866 15.7821 3 
7.16889 27.2875 15.7867 3 
5.73874 25.8501 14.3462 3 
10.0141 27.2958 12.9183 3 
10.0178 27.2873 15.8062 3 
11.44 25.8177 14.3941 3 
8.60237 25.8475 14.3525 3 
14.3567 28.6703 14.2926 5 
12.5189 27.436 13.0585 5 
16.1945 27.436 13.0585 5 
12.8901 27.3083 15.7897 3 
15.8234 27.3084 15.7898 3 
14.3568 25.8545 14.4467 5 
18.6993 27.2959 12.9184 3 
18.6956 27.2873 15.8063 3 
20.1111 25.8476 14.3526 3 
17.2735 25.8177 14.3942 3 
21.5413 27.2888 12.9113 3 
24.4083 27.2866 12.9092 3 
21.5446 27.2876 15.7867 3 
24.4094 27.2867 15.7821 3 
22.9747 25.8502 14.3462 3 
27.2778 27.2861 12.9087 3 
27.278 27.2863 15.7808 3 
25.8431 25.8503 14.3448 3 
1.43506 1.44651 18.6532 3 
2.86898 2.88346 17.218 3 
0.000741653 0.0103019 17.2169 3 
2.86928 2.88301 20.0899 3 