ITEM: TIMESTEP
82042
ITEM: NUMBER OF ATOMS
18
ITEM: BOX BOUNDS pp pp pp
0.0000000000000000e+00 2.8712000000000000e+01
0.0000000000000000e+00 2.8712000000000000e+01
0.0000000000000000e+00 2.8712000000000000e+01
ITEM: ATOMS x y z c_cna 
14.3567 0.112309 11.4769 5 
14.3568 23.0295 8.65212 5 
12.5193 24.2638 9.88643 5 
16.1944 24.2638 9.88642 5 
14.3568 22.8755 11.4679 5 
11.5226 25.8498 11.4724 5 
14.3567 25.8452 8.49809 5 
15.7791 27.2486 10.0736 5 
14.3567 26.599 12.2213 5 
14.3568 25.1008 10.7234 5 
12.9343 27.2486 10.0736 5 
17.1909 25.8498 11.4724 5 
12.9344 24.4511 12.8712 5 
15.7792 24.4511 12.8712 5 
14.3567 28.6703 14.2926 5 
12.5189 27.436 13.0585 5 
16.1945 27.436 13.0585 5 
14.3568 25.8545 14.4467 5 
ITEM: TIMESTEP
82043
ITEM: NUMBER OF ATOMS
18
ITEM: BOX BOUNDS pp pp pp
0.0000000000000000e+00 2.8712000000000000e+01
0.0000000000000000e+00 2.8712000000000000e+01
0.0000000000000000e+00 2.8712000000000000e+01
ITEM: ATOMS x y z c_cna 
14.3567 0.112309 11.4769 5 
14.3568 23.0295 8.65212 5 
12.5193 24.2638 9.88643 5 
16.1944 24.2638 9.88642 5 
14.3568 22.8755 11.4679 5 
11.5226 25.8498 11.4724 5 
14.3567 25.8452 8.49809 5 
15.7791 27.2486 10.0736 5 
14.3567 26.599 12.2213 5 
14.3568 25.1008 10.7234 5 
12.9343 27.2486 10.0736 5 
17.1909 25.8498 11.4724 5 
12.9344 24.4511 12.8712 5 
15.7792 24.4511 12.8712 5 
14.3567 28.6703 14.2926 5 
12.5189 27.436 13.0585 5 
16.1945 27.436 13.0585 5 
14.3568 25.8545 14.4467 5 
