ITEM: TIMESTEP
83041
ITEM: NUMBER OF ATOMS
2001
ITEM: BOX BOUNDS pp pp pp
0.0000000000000000e+00 2.8712000000000000e+01
0.0000000000000000e+00 2.8712000000000000e+01
0.0000000000000000e+00 2.8712000000000000e+01
ITEM: ATOMS x y z c_cna 
1.43575 1.44586 1.42171 3 
2.87068 2.88173 2.85706 3 
0.000789612 2.88145 2.8574 3 
2.87013 0.0102219 2.85652 3 
0.000759534 0.00991066 2.85707 3 
4.30584 1.44625 1.42108 3 
7.17722 1.44626 1.42118 3 
5.74091 2.88244 2.85636 3 
5.73949 0.0111815 2.85507 3 
10.0496 1.4452 1.42244 3 
8.6131 2.88188 2.8571 3 
11.4856 2.88051 2.85854 3 
11.485 0.00906569 2.85801 3 
8.61134 0.011134 2.85548 3 
12.9213 1.44417 1.42343 3 
15.7921 1.44421 1.42345 3 
14.3567 2.88 2.8591 3 
14.3567 0.00786431 2.85928 3 
18.6638 1.4453 1.4225 3 
17.2278 2.88059 2.85859 3 
20.1003 2.88199 2.85715 3 
20.1021 0.0113052 2.85549 3 
17.2284 0.00916487 2.85806 3 
22.9726 2.88258 2.85639 3 
24.4077 1.4464 1.42111 3 
21.5363 1.44641 1.42123 3 
22.974 0.0113325 2.85508 3 
27.2778 1.44593 1.42172 3 
25.8429 2.88182 2.85709 3 
25.8434 0.0103129 2.85652 3 
1.43602 4.31716 1.42211 3 
1.43625 7.18784 1.42224 3 
2.87133 5.75258 2.85749 3 
0.000807622 5.7525 2.85756 3 
4.30668 4.31737 1.42185 3 
7.17832 4.31704 1.42221 3 
4.30741 7.18784 1.42234 3 
7.17902 7.18749 1.42278 3 
5.74244 5.75259 2.85757 3 
10.0502 4.31623 1.42301 3 
10.0504 7.18703 1.42334 3 
8.61431 5.75191 2.85836 3 
11.4858 5.75115 2.85922 3 
12.9213 4.31568 1.42351 3 
15.792 4.31568 1.42356 3 
12.9213 7.18675 1.42368 3 
15.792 7.18674 1.42369 3 
14.3566 5.75088 2.85952 3 
18.6632 4.31628 1.42307 3 
18.663 7.18701 1.42339 3 
17.2275 5.75116 2.85923 3 
20.0991 5.75192 2.85839 3 
21.5352 4.31711 1.42226 3 
21.5345 7.1875 1.42284 3 
22.9711 5.75261 2.85761 3 
24.4061 7.18781 1.42238 3 
24.4069 4.31745 1.4219 3 
27.2776 4.31721 1.42211 3 
27.2773 7.18785 1.42223 3 
25.8423 5.75263 2.85749 3 
1.43623 10.058 1.4219 3 
2.87162 8.62308 2.85737 3 
2.87149 11.4928 2.85704 3 
0.000779345 8.62299 2.85738 3 
0.000741646 11.4928 2.85701 3 
4.30753 10.058 1.42208 3 
7.17908 10.058 1.42253 3 
5.74301 8.623 2.85769 3 
5.74282 11.4928 2.85731 3 
10.0504 10.0579 1.42297 3 
8.61462 8.62271 2.85833 3 
11.4858 8.62243 2.85887 3 
8.61445 11.493 2.85791 3 
11.4857 11.4931 2.8584 3 
12.9212 10.0578 1.42322 3 
15.7921 10.0577 1.42323 3 
14.3566 8.6223 2.85908 3 
14.3567 11.493 2.85857 3 
18.663 10.0578 1.42295 3 
17.2275 8.62238 2.85887 3 
20.0987 8.62266 2.85833 3 
17.2276 11.493 2.85835 3 
20.099 11.4929 2.85787 3 
21.5343 10.0579 1.4225 3 
22.9705 8.62294 2.85768 3 
22.9706 11.4927 2.85726 3 
24.4059 10.0579 1.42206 3 
27.2772 10.058 1.42188 3 
25.8419 8.62305 2.85739 3 
25.842 11.4927 2.85703 3 
1.43596 12.9277 1.42118 3 
1.43546 15.798 1.42038 3 
2.8705 14.3623 2.85613 3 
0.000701152 14.3627 2.8564 3 
4.30529 15.7972 1.4196 3 
4.30688 12.9276 1.42118 3 
7.17856 12.9279 1.42158 3 
7.17727 15.7974 1.41988 3 
5.74132 14.362 2.8558 3 
10.0501 12.9281 1.42205 3 
10.0495 15.798 1.42056 3 
8.6136 14.3626 2.85648 3 
11.4854 14.363 2.8571 3 
12.9212 12.9282 1.42231 3 
15.7922 12.9282 1.42231 3 
12.9211 15.7983 1.42088 3 
15.7923 15.7983 1.42086 3 
14.3567 14.3631 2.85733 3 
18.6633 12.928 1.42204 3 
18.6639 15.7979 1.42049 3 
17.228 14.3629 2.85706 3 
20.0998 14.3625 2.85641 3 
21.5349 12.9278 1.42155 3 
21.5361 15.7973 1.41981 3 
22.9721 14.3619 2.85573 3 
24.4081 15.7971 1.41955 3 
24.4066 12.9276 1.42114 3 
27.2775 12.9277 1.4212 3 
27.2779 15.798 1.42037 3 
25.8429 14.3623 2.85612 3 
1.43519 18.6695 1.42004 3 
2.86939 17.2328 2.85506 3 
2.86913 20.105 2.85488 3 
0.000682823 20.1055 2.85578 3 
0.000683871 17.2336 2.85584 3 
4.3043 18.6686 1.41882 3 
7.1752 18.6675 1.41822 3 
5.73818 17.2306 2.85293 3 
5.73703 20.103 2.85218 3 
10.0488 18.6687 1.4197 3 
8.61188 17.2314 2.85382 3 
11.4849 17.2324 2.85492 3 
8.6082 20.1008 2.85133 3 
11.4845 20.1037 2.85469 3 
12.921 18.6695 1.42039 3 
15.7925 18.6695 1.42038 3 
14.3567 17.2327 2.85521 3 
14.3567 20.1046 2.85539 3 
18.6646 18.6687 1.41968 3 
17.2285 17.2323 2.85488 3 
20.1016 17.2313 2.85378 3 
17.229 20.1037 2.85468 3 
20.1053 20.1007 2.8513 3 
21.5383 18.6675 1.41817 3 
24.4091 18.6685 1.41878 3 
22.9752 17.2305 2.85287 3 
22.9764 20.103 2.85213 3 
27.2782 18.6695 1.42005 3 
25.844 17.2327 2.85506 3 
25.8443 20.1049 2.85484 3 
1.43518 21.5418 1.42022 3 
2.86935 22.9776 2.85528 3 
1.43531 24.414 1.42066 3 
0.000688768 22.9778 2.85615 3 
4.30464 24.414 1.41963 3 
4.30426 21.5413 1.41904 3 
7.17484 21.5404 1.41856 3 
5.73755 22.9771 2.85296 3 
7.17543 24.4138 1.41951 3 
10.0473 21.5401 1.42002 3 
8.60839 22.9757 2.8528 3 
11.4818 22.9749 2.85594 3 
10.0477 24.4131 1.42134 3 
12.9207 21.5417 1.42171 3 
15.7928 21.5417 1.42171 3 
14.3568 22.977 2.85829 3 
15.7934 24.4127 1.4234 3 
12.9201 24.4127 1.42339 3 
18.6661 21.5401 1.42001 3 
17.2317 22.9749 2.85596 3 
20.1051 22.9757 2.85276 3 
18.6658 24.4132 1.42135 3 
21.5386 21.5405 1.41854 3 
24.4091 21.5413 1.41898 3 
22.9759 22.9771 2.85288 3 
24.4088 24.4141 1.4196 3 
21.538 24.4139 1.41951 3 
27.2782 21.5418 1.42021 3 
25.844 22.9777 2.85526 3 
27.2781 24.4141 1.42068 3 
1.4355 27.2861 1.42119 3 
2.86974 25.8502 2.85589 3 
0.000722386 25.85 2.85662 3 
4.30519 27.2864 1.42034 3 
7.17624 27.2865 1.42034 3 
5.73846 25.8506 2.854 3 
10.0488 27.2855 1.42205 3 
8.60978 25.8503 2.85433 3 
11.4833 25.8485 2.85771 3 
12.9211 27.284 1.42395 3 
15.7924 27.284 1.42397 3 
14.3568 25.8465 2.86034 3 
18.6647 27.2857 1.42208 3 
17.2303 25.8486 2.85772 3 
20.1037 25.8505 2.8543 3 
21.5372 27.2866 1.42035 3 
22.975 25.8508 2.85398 3 
24.4083 27.2866 1.42034 3 
27.278 27.2862 1.42118 3 
25.8437 25.8502 2.85588 3 
1.43547 1.44571 4.29282 3 
1.43541 1.44549 7.1646 3 
2.87022 2.88158 5.72847 3 
2.86987 0.00996096 5.7282 3 
0.000784279 2.88131 5.72879 3 
0.000734686 0.0096434 5.72868 3 
4.3047 1.4465 4.29188 3 
7.17395 1.44833 4.29012 3 
4.30438 1.44603 7.16406 3 
7.1733 1.4466 7.16351 3 
5.73983 2.88217 5.72791 3 
5.738 0.0114556 5.72638 3 
10.0475 1.44716 4.29162 3 
10.0463 1.44449 7.16568 3 
8.61153 2.88167 5.72846 3 
11.4851 2.87912 5.7311 3 
11.4809 0.0135227 5.72493 3 
8.60459 0.0160186 5.72186 3 
12.921 1.44488 4.29409 3 
15.7923 1.4449 4.2941 3 
12.9214 1.43974 7.17047 3 
15.792 1.43976 7.17047 3 
14.3566 2.87792 5.73234 3 
14.3567 0.00965185 5.72863 3 
18.666 1.44731 4.29162 3 
18.6671 1.44458 7.16564 3 
17.2282 2.87919 5.73109 3 
20.1019 2.88179 5.72846 3 
17.2325 0.013616 5.72491 3 
20.1089 0.0161719 5.7218 3 
21.5395 1.44846 4.29009 3 
24.4088 1.44663 4.2919 3 
21.5402 1.44673 7.16349 3 
22.9737 2.88227 5.72791 3 
24.4091 1.44616 7.16407 3 
22.9755 0.0116193 5.72637 3 
27.2781 1.44575 4.29283 3 
27.2781 1.44557 7.16464 3 
25.8433 2.88166 5.72849 3 
25.8437 0.0100436 5.72821 3 
1.43575 4.31705 4.29298 3 
1.43596 7.18797 4.29287 3 
1.43546 4.31726 7.16435 3 
1.43567 7.18839 7.1642 3 
2.87062 5.75301 5.72831 3 
0.000780179 5.75267 5.7286 3 
4.30462 4.31821 7.16355 3 
4.30586 4.31737 4.29268 3 
4.30654 7.18828 4.29271 3 
7.17709 4.3173 4.29285 3 
7.17815 7.18803 4.29313 3 
4.30566 7.18903 7.16381 3 
7.17385 4.32006 7.16177 3 
5.7408 5.7538 5.72763 3 
7.17698 7.18901 7.16385 3 
10.0496 4.316 4.29428 3 
10.05 7.1873 4.29405 3 
10.0474 4.3186 7.163 3 
8.61297 5.75314 5.72829 3 
10.0495 7.18782 7.165 3 
11.4855 5.75176 5.72972 3 
12.9212 4.31486 4.29542 3 
15.7921 4.31492 4.29545 3 
12.9212 7.18684 4.29468 3 
15.792 7.18683 4.29469 3 
12.9209 4.31617 7.16534 3 
15.7923 4.31619 7.16532 3 
12.9212 7.18686 7.16608 3 
14.3566 5.75124 5.73029 3 
15.7921 7.18685 7.16608 3 
18.6637 4.31604 4.29428 3 
18.6633 7.18728 4.29407 3 
18.666 4.31865 7.16297 3 
17.2278 5.75175 5.72974 3 
18.6638 7.18779 7.16499 3 
20.1004 5.75315 5.7283 3 
21.5364 4.31738 4.29287 3 
21.5352 7.188 4.29314 3 
24.4069 7.18828 4.29272 3 
24.4077 4.31748 4.29273 3 
24.4089 4.3183 7.16357 3 
21.5396 4.32012 7.16176 3 
21.5364 7.189 7.16383 3 
22.9727 5.75383 5.72766 3 
24.4078 7.18904 7.16382 3 
27.2779 4.31709 4.29302 3 
27.2776 7.18798 4.29286 3 
27.2781 4.3173 7.16438 3 
25.843 5.75307 5.72831 3 
27.2779 7.18838 7.16422 3 
1.43607 10.0581 4.29275 3 
1.43589 10.0584 7.16425 3 
2.87113 8.62347 5.72838 3 
2.8712 11.493 5.72841 3 
0.000732228 11.493 5.72839 3 
0.000777942 8.62325 5.72847 3 
4.30703 10.0581 4.29287 3 
7.17858 10.0581 4.29337 3 
4.30661 10.0586 7.16429 3 
5.74224 8.62355 5.7285 3 
7.1781 10.0585 7.16468 3 
5.74238 11.4931 5.72863 3 
10.0501 10.0579 4.29407 3 
8.6141 8.62309 5.72923 3 
10.0498 10.0581 7.16539 3 
11.4857 8.62254 5.73007 3 
8.61401 11.4931 5.72915 3 
11.4855 11.4932 5.72986 3 
12.9212 10.0578 4.29454 3 
15.7921 10.0578 4.29452 3 
12.9211 10.0578 7.16603 3 
14.3566 8.62238 5.73043 3 
15.7922 10.0578 7.16603 3 
14.3567 11.4933 5.73013 3 
18.6632 10.0579 4.29405 3 
20.0992 8.62303 5.72921 3 
17.2276 8.62252 5.73008 3 
18.6635 10.058 7.16538 3 
17.2278 11.4932 5.72981 3 
20.0993 11.493 5.72911 3 
21.5348 10.058 4.29334 3 
24.4064 10.0581 4.29287 3 
21.5353 10.0584 7.16464 3 
22.9712 8.6235 5.72851 3 
22.971 11.4929 5.7286 3 
24.4068 10.0585 7.1643 3 
27.2775 10.0581 4.29276 3 
25.8424 8.62343 5.7284 3 
27.2776 10.0584 7.16426 3 
25.8422 11.4929 5.72842 3 
1.43576 12.9276 4.29242 3 
1.43519 15.7978 4.2918 3 
1.43569 12.9279 7.16426 3 
1.43516 15.798 7.16403 3 
2.87023 14.3624 5.72797 3 
0.000718627 14.3628 5.72816 3 
4.30426 15.7965 4.29092 3 
4.30632 12.9275 4.29235 3 
7.17784 12.9276 4.29257 3 
7.17514 15.7959 4.28994 3 
4.30616 12.9278 7.16425 3 
4.30418 15.7968 7.16362 3 
7.17753 12.928 7.16437 3 
5.74076 14.362 5.72764 3 
7.17472 15.7963 7.16286 3 
10.0497 12.9281 4.29334 3 
10.0488 15.7973 4.29125 3 
10.0493 12.9285 7.16479 3 
8.61259 14.3625 5.72771 3 
10.0472 15.7977 7.16262 3 
11.485 14.3635 5.72875 3 
12.9211 12.9283 4.29385 3 
15.7922 12.9282 4.29382 3 
12.9209 15.7979 4.29207 3 
15.7925 15.7978 4.29205 3 
12.921 12.9289 7.16542 3 
15.7924 12.9289 7.16541 3 
12.9206 15.7993 7.16418 3 
14.3567 14.3637 5.72917 3 
15.7928 15.7993 7.16415 3 
18.6637 12.928 4.29328 3 
18.6646 15.7972 4.29118 3 
18.6641 12.9284 7.16474 3 
17.2283 14.3634 5.72867 3 
18.6662 15.7975 7.16253 3 
20.1008 14.3624 5.72763 3 
21.5356 12.9275 4.29252 3 
21.5383 15.7957 4.28987 3 
24.4092 15.7964 4.29088 3 
24.4071 12.9274 4.29233 3 
21.5359 12.9279 7.16434 3 
21.5387 15.7961 7.16279 3 
22.9727 14.3618 5.7276 3 
24.4073 12.9277 7.16424 3 
24.4093 15.7967 7.16358 3 
27.2777 12.9276 4.29241 3 
27.2782 15.7977 4.2918 3 
27.2778 12.9279 7.16428 3 
25.8432 14.3623 5.72797 3 
27.2783 15.798 7.16403 3 
1.43487 18.6691 4.29134 3 
1.43493 18.6693 7.16372 3 
2.86907 17.2326 5.72722 3 
2.86885 20.1044 5.72673 3 
0.000693809 17.2336 5.72778 3 
0.000698472 20.1054 5.72763 3 
4.30245 18.667 4.28929 3 
7.1688 18.6619 4.28424 3 
4.30258 18.6671 7.16262 3 
5.73698 17.2299 5.72535 3 
7.16807 18.6618 7.15949 3 
5.73453 20.1005 5.72284 3 
10.047 18.6649 4.28736 3 
8.60813 17.229 5.72322 3 
10.0399 18.6613 7.1551 3 
11.4845 17.2323 5.72617 3 
8.59422 20.0883 5.71068 3 
11.4849 20.0987 5.72115 3 
12.9208 18.6664 4.2889 3 
15.7927 18.6664 4.2889 3 
12.9211 18.6686 7.16205 3 
14.3567 17.2329 5.72707 3 
15.7924 18.6685 7.16202 3 
14.3568 20.0999 5.72233 3 
18.6664 18.6649 4.28731 3 
17.229 17.2322 5.72613 3 
18.6736 18.6612 7.155 3 
20.1053 17.2289 5.72312 3 
17.2286 20.0987 5.72112 3 
20.1192 20.0882 5.7106 3 
21.5446 18.6618 4.28415 3 
24.4109 18.667 4.28924 3 
21.5454 18.6617 7.15939 3 
22.9765 17.2297 5.72527 3 
22.9789 20.1004 5.72277 3 
24.4108 18.667 7.16254 3 
27.2785 18.6691 4.29133 3 
25.8443 17.2326 5.72718 3 
27.2785 18.6693 7.16372 3 
25.8445 20.1044 5.72669 3 
1.43513 24.4138 4.29197 3 
1.43495 21.5414 4.29154 3 
1.43512 21.5414 7.16372 3 
2.86933 22.9773 5.72713 3 
1.43536 24.4136 7.16409 3 
0.000705978 22.9776 5.72793 3 
4.30333 24.4138 4.29023 3 
4.30263 21.5403 4.2894 3 
7.16813 21.5371 4.2841 3 
7.16983 24.4138 4.28608 3 
4.30393 24.4132 7.16276 3 
4.30292 21.5396 7.16203 3 
7.16543 21.5331 7.15557 3 
5.7358 22.9758 5.72368 3 
7.16885 24.4122 7.15816 3 
10.0399 21.5326 4.28366 3 
10.0415 24.4117 4.28722 3 
10.0061 21.502 7.12452 3 
8.59618 22.9718 5.71348 3 
11.4689 22.9628 5.71612 3 
10.0179 24.4125 7.13855 3 
12.9211 21.5396 4.29097 3 
15.7924 21.5396 4.29097 3 
15.7971 24.409 4.29364 3 
12.9164 24.409 4.29364 3 
12.9314 21.5372 7.1597 3 
15.7822 21.5372 7.15966 3 
14.3568 22.978 5.73173 3 
12.8901 24.3915 7.15495 3 
15.8235 24.3915 7.15493 3 
18.6736 21.5326 4.28361 3 
18.672 24.4117 4.28719 3 
18.7074 21.502 7.1244 3 
17.2447 22.9628 5.71608 3 
20.1174 22.9718 5.71341 3 
18.6957 24.4126 7.13844 3 
21.5454 21.5371 4.28405 3 
24.4108 21.5403 4.28935 3 
24.4101 24.4139 4.29018 3 
21.5437 24.4139 4.28604 3 
21.5481 21.5331 7.15547 3 
22.9777 22.9758 5.72359 3 
24.4095 24.4132 7.16271 3 
24.4105 21.5396 7.16197 3 
21.5447 24.4123 7.15806 3 
27.2784 21.5414 4.2915 3 
27.2783 24.4138 4.29196 3 
27.2782 21.5413 7.16366 3 
25.8441 22.9773 5.72706 3 
27.278 24.4136 7.16407 3 
1.43531 27.2859 4.29246 3 
1.4354 27.2856 7.16449 3 
2.86967 25.8498 5.72771 3 
0.000689334 25.8497 5.72838 3 
4.30396 27.2866 4.29107 3 
7.17163 27.2884 4.28788 3 
4.30416 27.286 7.16353 3 
5.7371 25.8505 5.72514 3 
7.17037 27.2884 7.16036 3 
10.0446 27.2878 4.28917 3 
8.6004 25.8535 5.71761 3 
10.0291 27.3001 7.14776 3 
11.4759 25.8494 5.72157 3 
12.9203 27.2836 4.29418 3 
15.7932 27.2836 4.29419 3 
12.9116 27.295 7.15393 3 
14.3568 25.8404 5.72844 3 
15.8019 27.2951 7.1539 3 
18.6689 27.2879 4.28915 3 
17.2377 25.8495 5.72153 3 
18.6844 27.3003 7.14768 3 
20.1131 25.8536 5.71754 3 
21.5419 27.2886 4.28786 3 
24.4095 27.2867 4.29107 3 
21.5431 27.2885 7.16028 3 
22.9764 25.8506 5.72508 3 
24.4093 27.2861 7.16351 3 
27.2782 27.286 4.29245 3 
25.8438 25.8499 5.7277 3 
27.278 27.2857 7.16449 3 
2.86985 2.88193 8.60017 3 
2.87003 0.00967961 8.60051 3 
0.000756628 2.88146 8.60052 3 
1.43539 1.44573 10.0366 3 
2.86966 2.88243 11.4724 3 
2.87025 0.0101173 11.4727 3 
0.000707145 0.00955019 8.60069 3 
0.000709574 2.88182 11.4725 3 
0.000650795 0.00983041 11.4727 3 
5.73796 2.88375 8.5986 3 
5.73844 0.0101782 8.59997 3 
4.30415 1.44665 10.0361 3 
7.17032 1.44986 10.0338 3 
5.73704 2.88505 11.4717 3 
5.73866 0.0115479 11.4727 3 
8.60451 2.88834 8.59409 3 
11.4809 2.88528 8.59663 3 
11.4835 0.00151266 8.60865 3 
8.60645 0.00959527 8.60059 3 
8.60237 0.0178936 11.4701 3 
10.029 1.46245 10.022 3 
8.60033 2.89261 11.4687 3 
11.4758 2.88864 11.4727 3 
11.44 0.059527 11.4402 3 
14.3567 2.88159 8.60055 3 
14.3568 0.112099 11.4771 5 
12.9115 1.45628 10.0271 3 
15.8019 1.4563 10.0271 3 
14.3567 2.88177 11.4818 3 
17.2325 2.88532 8.59659 3 
20.1089 2.88841 8.59405 3 
20.107 0.00972307 8.60054 3 
17.23 0.00157796 8.60864 3 
18.6844 1.46253 10.022 3 
17.2376 2.88868 11.4727 3 
20.1131 2.89266 11.4687 3 
20.1111 0.0179863 11.47 3 
17.2735 0.0595732 11.4402 3 
22.9755 2.88384 8.59863 3 
21.5431 1.44995 10.0337 3 
22.9764 2.88516 11.4717 3 
24.4093 1.44674 10.0361 3 
22.9751 0.0103161 8.59995 3 
22.9748 0.0116623 11.4727 3 
25.8436 2.882 8.60018 3 
25.8434 0.00976512 8.60047 3 
27.278 1.44576 10.0366 3 
25.8438 2.88252 11.4724 3 
25.8431 0.0101785 11.4727 3 
2.87007 5.75358 8.59988 3 
0.000777172 5.753 8.60021 3 
1.43531 4.31765 10.0362 3 
1.43547 7.18889 10.036 3 
2.86967 5.7542 11.472 3 
0.000761926 5.75349 11.4722 3 
4.30391 4.31905 10.0356 3 
5.73933 5.75507 8.59891 3 
4.305 7.18979 10.0357 3 
7.17149 4.3223 10.0337 3 
7.176 7.18985 10.0356 3 
5.73832 5.75616 11.4715 3 
8.61114 5.75473 8.59897 3 
11.4848 5.75223 8.60109 3 
10.0445 4.32103 10.0343 3 
10.0485 7.18815 10.0366 3 
8.6096 5.7559 11.4718 3 
11.4831 5.75247 11.4736 3 
14.3566 5.751 8.60231 3 
12.9202 4.31604 10.0385 3 
15.7931 4.31604 10.0385 3 
12.9209 7.18627 10.0382 3 
15.7924 7.18625 10.0381 3 
14.3567 5.74988 11.4756 3 
18.6689 4.32105 10.0343 3 
17.2284 5.75221 8.60108 3 
20.1022 5.75473 8.59896 3 
18.6648 7.18812 10.0366 3 
17.2302 5.75247 11.4736 3 
20.1037 5.75588 11.4718 3 
22.9741 5.75511 8.5989 3 
21.5419 4.32234 10.0337 3 
21.5373 7.18978 10.0356 3 
22.9751 5.75616 11.4715 3 
24.4096 4.31912 10.0356 3 
24.4084 7.18977 10.0357 3 
25.8435 5.75362 8.59989 3 
27.2782 4.3177 10.0363 3 
27.278 7.18887 10.0361 3 
25.8438 5.75421 11.4721 3 
2.87076 8.62404 8.60002 3 
2.87105 11.4935 8.60026 3 
0.00072329 11.4934 8.60027 3 
1.43579 10.059 10.0362 3 
2.87047 8.62458 11.4721 3 
2.87103 11.4939 11.4723 3 
0.000710367 11.4939 11.4724 3 
0.000759388 8.62419 11.4722 3 
0.000782596 8.6237 8.60015 3 
5.7416 8.62418 8.59999 3 
5.74217 11.4935 8.60038 3 
4.30635 10.0591 10.0362 3 
7.17778 10.0589 10.0363 3 
5.74117 8.6248 11.472 3 
5.74212 11.494 11.4723 3 
8.61347 8.6235 8.60051 3 
11.4854 8.62245 8.60159 3 
8.61376 11.4936 8.6007 3 
11.4853 11.4936 8.60119 3 
11.4848 8.62266 11.4729 3 
10.0495 10.0584 10.0367 3 
8.61292 8.62397 11.4723 3 
8.61371 11.494 11.4723 3 
11.4852 11.494 11.4723 3 
14.3566 8.62207 8.60211 3 
14.3567 11.4936 8.60148 3 
12.921 10.0579 10.0373 3 
15.7923 10.0579 10.0373 3 
14.3567 8.62193 11.4734 3 
14.3567 11.4939 11.4723 3 
17.2279 8.62244 8.60159 3 
20.0999 8.62344 8.60051 3 
17.228 11.4935 8.60116 3 
20.0996 11.4934 8.60067 3 
18.6638 10.0583 10.0368 3 
17.2285 8.62258 11.4729 3 
20.1004 8.62386 11.4723 3 
17.2282 11.4939 11.4723 3 
20.0997 11.4938 11.4723 3 
22.9718 8.62411 8.6 3 
22.9712 11.4934 8.60038 3 
21.5356 10.0588 10.0363 3 
22.9722 8.6247 11.4721 3 
22.9713 11.4938 11.4723 3 
24.4071 10.059 10.0362 3 
25.8427 8.62396 8.60003 3 
25.8424 11.4934 8.60028 3 
27.2777 10.0589 10.0362 3 
25.843 8.62452 11.4721 3 
25.8424 11.4938 11.4723 3 
2.87026 14.3628 8.60027 3 
0.000726515 14.3631 8.6003 3 
1.43567 12.9284 10.0364 3 
1.43525 15.7984 10.0364 3 
2.87042 14.3633 11.4726 3 
0.000678415 14.3636 11.4725 3 
5.74083 14.3625 8.60018 3 
4.30618 12.9283 10.0364 3 
4.30449 15.7974 10.0365 3 
7.17759 12.9286 10.0364 3 
7.17527 15.7973 10.0363 3 
5.74114 14.3631 11.4726 3 
8.61251 14.3633 8.60004 3 
11.4845 14.3645 8.60019 3 
10.0492 12.9292 10.0364 3 
10.0475 15.7991 10.0356 3 
8.61293 14.364 11.4723 3 
11.4849 14.3652 11.4717 3 
14.3567 14.3649 8.60063 3 
12.9208 12.9296 10.0365 3 
15.7926 12.9295 10.0364 3 
12.9201 15.801 10.0351 3 
15.7934 15.801 10.0351 3 
14.3567 14.3659 11.4712 3 
17.2289 14.3644 8.60014 3 
20.1009 14.3631 8.59995 3 
18.6641 12.929 10.0364 3 
18.6659 15.7989 10.0355 3 
17.2285 14.3651 11.4716 3 
20.1005 14.3638 11.4722 3 
22.9726 14.3624 8.60013 3 
21.5358 12.9284 10.0364 3 
21.5382 15.7971 10.0362 3 
22.9723 14.363 11.4726 3 
24.4089 15.7973 10.0365 3 
24.4072 12.9282 10.0364 3 
25.8432 14.3627 8.60026 3 
27.2777 12.9283 10.0364 3 
27.2782 15.7984 10.0364 3 
25.843 14.3632 11.4726 3 
2.86928 17.2331 8.60002 3 
2.86929 20.1048 8.59966 3 
1.43509 18.6697 10.0362 3 
2.86959 17.2336 11.4727 3 
2.86957 20.1053 11.4724 3 
0.000687673 20.1056 8.6 3 
0.000704382 17.2339 8.60015 3 
0.000690669 17.2343 11.4724 3 
0.000671798 20.106 11.4723 3 
5.73745 17.2307 8.59951 3 
5.73574 20.1013 8.5983 3 
4.30322 18.6679 10.0362 3 
7.16972 18.6637 10.0363 3 
5.73828 17.2317 11.4732 3 
5.73698 20.1027 11.4731 3 
8.60825 17.2305 8.59817 3 
11.4818 17.2336 8.59734 3 
8.59612 20.0911 8.59432 3 
11.4689 20.0937 8.58531 3 
10.0415 18.6648 10.0342 3 
8.60962 17.232 11.4729 3 
11.4832 17.2353 11.4711 3 
8.60033 20.0952 11.4761 3 
11.4759 20.0991 11.472 3 
14.3567 17.2359 8.59952 3 
14.3568 20.1093 8.60052 3 
12.9164 18.6712 10.0315 3 
15.7972 18.6712 10.0315 3 
14.3568 17.2379 11.469 3 
14.3568 20.1059 11.4629 3 
17.2317 17.2335 8.59728 3 
20.1052 17.2303 8.59807 3 
17.2447 20.0936 8.58523 3 
20.1174 20.091 8.59416 3 
18.672 18.6647 10.0341 3 
17.2303 17.2352 11.471 3 
20.1038 17.2318 11.4728 3 
17.2377 20.099 11.4719 3 
20.1132 20.095 11.476 3 
22.976 17.2305 8.59942 3 
22.9777 20.1012 8.5982 3 
21.5437 18.6636 10.0362 3 
22.9751 17.2316 11.4731 3 
22.9764 20.1026 11.473 3 
24.4102 18.6678 10.0362 3 
25.8441 17.233 8.6 3 
25.8441 20.1047 8.59962 3 
27.2783 18.6697 10.0362 3 
25.8438 17.2335 11.4726 3 
25.8438 20.1053 11.4724 3 
2.86997 22.9772 8.59967 3 
1.4356 24.4137 10.0362 3 
1.43532 21.5417 10.0361 3 
2.87022 22.9777 11.4722 3 
0.000669964 22.9776 8.60007 3 
0.000670037 22.978 11.4722 3 
5.73746 22.9749 8.59746 3 
4.30387 21.5403 10.0357 3 
7.17208 24.411 10.0337 3 
4.30511 24.4132 10.0357 3 
7.16879 21.5357 10.0349 3 
5.7386 22.9762 11.4722 3 
8.59689 22.9649 8.58755 3 
11.3817 22.8804 8.50301 3 
10.0142 24.4039 10.0265 3 
10.0178 21.516 10.0351 3 
8.60235 22.9697 11.4748 3 
11.4401 22.9281 11.5047 3 
14.3568 23.0296 8.65205 5 
12.5192 24.2637 9.8864 5 
16.1945 24.2637 9.88629 5 
14.3568 22.8755 11.4678 5 
15.8235 21.5324 10.014 3 
12.8902 21.5325 10.0141 3 
17.3319 22.8804 8.50293 3 
20.1167 22.965 8.58743 3 
18.6994 24.4039 10.0264 3 
17.2735 22.9281 11.5046 3 
20.1112 22.9697 11.4747 3 
18.6957 21.516 10.035 3 
22.976 22.9749 8.59738 3 
22.9748 22.9761 11.4722 3 
21.5447 21.5356 10.0347 3 
21.5414 24.4111 10.0336 3 
24.4083 24.4131 10.0357 3 
24.4095 21.5403 10.0357 3 
25.8434 22.9772 8.59962 3 
25.8431 22.9776 11.4721 3 
27.278 21.5416 10.0361 3 
27.2777 24.4137 10.0362 3 
2.87025 25.8496 8.60016 3 
0.000661605 25.8496 8.60046 3 
0.000629053 25.8499 11.4725 3 
2.87057 25.8499 11.4725 3 
1.43555 27.2857 10.0366 3 
5.73868 25.8496 8.59872 3 
7.17282 27.2857 10.0365 3 
4.30492 27.2858 10.0365 3 
5.73988 25.8498 11.4725 3 
8.60239 25.8521 8.59238 3 
11.4401 25.882 8.55073 3 
11.5226 25.8498 11.4725 5 
8.60905 25.8498 11.4725 3 
10.0407 27.2801 10.0422 3 
14.3567 28.7039 8.61832 3 
14.3568 25.8452 8.49805 5 
12.9344 27.2485 10.0737 5 
14.3568 25.1008 10.7233 5 
14.3568 26.5989 12.2217 5 
15.7792 27.2486 10.0736 5 
17.2735 25.882 8.55064 3 
20.1111 25.8522 8.59226 3 
17.191 25.8498 11.4724 5 
18.6729 27.2802 10.0421 3 
20.1045 25.8499 11.4724 3 
22.9748 25.8496 8.59865 3 
21.5407 27.2858 10.0365 3 
22.9735 25.8499 11.4724 3 
24.4085 27.2859 10.0365 3 
25.8431 25.8496 8.60013 3 
27.2778 27.2857 10.0366 3 
25.8428 25.8499 11.4725 3 
1.43535 1.44618 12.9087 3 
1.43515 1.44659 15.7811 3 
2.86998 0.0106508 14.3452 3 
2.86934 2.88311 14.3451 3 
0.000686109 2.88231 14.3448 3 
0.000653185 0.0102615 14.3448 3 
5.73748 0.0128807 14.3474 3 
4.30392 1.44748 12.9091 3 
7.16881 1.45212 12.91 3 
4.30297 1.44828 15.7827 3 
7.16547 1.45476 15.7892 3 
5.73579 2.88658 14.3465 3 
10.0178 1.47172 12.9097 3 
8.59613 2.8968 14.3504 3 
11.4689 2.89414 14.3594 3 
10.0061 1.48582 15.8202 3 
8.59687 0.0227536 14.3573 3 
11.3817 0.107311 14.4419 3 
12.8901 1.45526 12.9307 3 
15.8234 1.45528 12.9307 3 
14.3567 2.8785 14.3441 3 
12.9314 1.4506 15.785 3 
15.7821 1.45061 15.785 3 
18.6956 1.47178 12.9096 3 
18.7073 1.48588 15.8203 3 
17.2446 2.89417 14.3594 3 
17.3319 0.10734 14.4419 3 
20.1173 2.89684 14.3505 3 
20.1166 0.0228408 14.3573 3 
21.5446 1.45223 12.91 3 
24.4095 1.44757 12.9091 3 
21.5479 1.45485 15.7892 3 
24.4104 1.44836 15.7828 3 
22.9776 2.88667 14.3465 3 
22.9759 0.0129689 14.3474 3 
27.278 1.44622 12.9088 3 
27.2782 1.44664 15.7811 3 
25.8441 2.88318 14.3451 3 
25.8433 0.010737 14.3452 3 
1.43514 4.31816 12.9085 3 
1.43532 7.18939 12.9083 3 
0.000738849 5.75396 14.3446 3 
1.43499 4.31867 15.781 3 
1.43524 7.18987 15.7807 3 
2.86937 5.7548 14.3447 3 
4.30328 4.31992 12.9085 3 
7.16975 4.32414 12.9084 3 
4.30455 7.1905 12.9082 3 
7.17528 7.19069 12.9084 3 
5.73751 5.75725 14.3452 3 
4.30266 4.32082 15.7821 3 
4.30427 7.19112 15.781 3 
7.16816 4.32616 15.7852 3 
7.17477 7.19167 15.7818 3 
10.0414 4.32302 12.9105 3 
10.0475 7.18886 12.909 3 
11.4817 5.75427 14.3473 3 
10.0399 4.32665 15.7896 3 
10.0473 7.19028 15.782 3 
8.60827 5.75744 14.3465 3 
12.9163 4.31659 12.9131 3 
15.7971 4.31659 12.9131 3 
12.92 7.18682 12.9094 3 
15.7933 7.18679 12.9094 3 
14.3567 5.75191 14.3451 3 
15.7924 4.3193 15.7826 3 
12.921 4.31929 15.7826 3 
12.9206 7.18855 15.7804 3 
15.7927 7.18852 15.7804 3 
18.6719 4.32299 12.9105 3 
18.6658 7.18879 12.909 3 
18.6735 4.32664 15.7896 3 
18.6661 7.19022 15.7821 3 
17.2316 5.75424 14.3473 3 
20.1051 5.75741 14.3465 3 
21.5436 4.32417 12.9084 3 
21.5381 7.19062 12.9084 3 
24.4089 7.19046 12.9082 3 
24.4101 4.32 12.9085 3 
22.9759 5.75724 14.3452 3 
21.5453 4.32618 15.7853 3 
21.5386 7.19162 15.7819 3 
24.4092 7.1911 15.7811 3 
24.4108 4.32085 15.7821 3 
27.2783 4.31819 12.9085 3 
27.2782 7.18938 12.9083 3 
25.8441 5.75483 14.3447 3 
27.2785 4.3187 15.781 3 
27.2782 7.18985 15.7807 3 
1.43571 10.0594 12.9083 3 
2.87031 8.6251 14.3444 3 
0.000675526 11.4943 14.3444 3 
1.43569 10.0599 15.7804 3 
0.000727663 8.62467 14.3444 3 
2.87107 11.4944 14.3444 3 
4.30622 10.0596 12.9082 3 
7.1776 10.0594 12.9082 3 
5.74086 8.62541 14.3445 3 
4.30619 10.0601 15.7804 3 
7.17758 10.0599 15.7803 3 
5.7422 11.4944 14.3443 3 
10.0493 10.0588 12.9082 3 
11.4854 11.4943 14.3434 3 
8.61254 8.62465 14.3446 3 
10.0493 10.0594 15.7798 3 
11.4845 8.62345 14.3444 3 
8.6138 11.4944 14.3439 3 
12.9208 10.0583 12.9081 3 
15.7925 10.0582 12.9081 3 
14.3567 8.6229 14.3439 3 
14.3567 11.4943 14.3431 3 
12.921 10.059 15.7792 3 
15.7924 10.0589 15.7792 3 
18.6641 10.0587 12.9082 3 
17.228 11.4942 14.3434 3 
17.2288 8.62338 14.3444 3 
20.0996 11.4943 14.344 3 
18.664 10.0593 15.7799 3 
20.1008 8.62456 14.3446 3 
21.5358 10.0593 12.9082 3 
24.4072 10.0595 12.9083 3 
22.9712 11.4943 14.3443 3 
22.9725 8.62532 14.3445 3 
21.5358 10.0598 15.7803 3 
24.4072 10.06 15.7804 3 
27.2777 10.0594 12.9083 3 
25.8423 11.4943 14.3444 3 
25.8431 8.62503 14.3444 3 
27.2777 10.0598 15.7805 3 
1.43571 12.9288 12.9085 3 
1.43537 15.7989 12.9086 3 
2.8707 14.3637 14.3447 3 
1.43584 12.9293 15.7804 3 
1.43558 15.7993 15.7805 3 
0.00067563 14.364 14.3446 3 
4.30636 12.9288 12.9085 3 
4.30496 15.798 12.909 3 
7.17781 12.929 12.9083 3 
7.17602 15.798 12.909 3 
5.74162 14.3637 14.3447 3 
4.30561 15.7987 15.7809 3 
4.30662 12.9292 15.7804 3 
7.17817 12.9294 15.78 3 
7.17699 15.7988 15.7809 3 
10.0495 12.9295 12.9078 3 
10.0486 15.7997 12.9081 3 
8.61354 14.3644 14.3441 3 
11.4855 14.3654 14.343 3 
10.0499 12.9298 15.7792 3 
10.0495 15.8 15.7797 3 
12.9211 12.93 12.9073 3 
15.7924 12.9299 12.9073 3 
12.921 15.8015 12.9064 3 
15.7924 15.8015 12.9064 3 
14.3567 14.3658 14.3425 3 
12.9212 12.93 15.7786 3 
15.7922 12.93 15.7786 3 
12.9213 15.8009 15.7786 3 
15.7922 15.8009 15.7786 3 
18.6639 12.9295 12.9078 3 
18.6649 15.7996 12.908 3 
20.0999 14.3642 14.3441 3 
17.2279 14.3653 14.343 3 
18.6635 12.9297 15.7792 3 
18.6639 15.7999 15.7797 3 
21.5356 12.9289 12.9083 3 
21.5374 15.7979 12.909 3 
24.4084 15.7979 12.909 3 
24.407 12.9286 12.9085 3 
22.9718 14.3635 14.3447 3 
21.5352 12.9293 15.78 3 
21.5364 15.7986 15.7808 3 
24.4068 12.9291 15.7804 3 
24.4078 15.7986 15.7809 3 
27.2776 12.9288 12.9085 3 
27.278 15.7988 12.9086 3 
25.8427 14.3637 14.3447 3 
27.2775 12.9292 15.7805 3 
27.2778 15.7993 15.7805 3 
1.4352 18.6701 12.9085 3 
1.43535 18.6704 15.7804 3 
2.86995 17.2341 14.3448 3 
2.86972 20.1058 14.3446 3 
0.000666169 20.1063 14.3443 3 
0.000694269 17.2347 14.3445 3 
4.30377 18.6687 12.9092 3 
7.17145 18.6655 12.911 3 
4.3045 18.6694 15.7812 3 
7.17377 18.6676 15.783 3 
5.73785 20.1039 14.3462 3 
5.73926 17.2327 14.3458 3 
10.0445 18.6667 12.9104 3 
8.61116 17.2331 14.3457 3 
11.4809 20.1024 14.3482 3 
10.0474 18.6691 15.7818 3 
8.60449 20.0993 14.3507 3 
11.4849 17.2356 14.3436 3 
12.9203 18.6717 12.9062 3 
15.7932 18.6716 12.9061 3 
14.3568 20.1061 14.3442 3 
12.9211 18.6715 15.7794 3 
15.7925 18.6715 15.7794 3 
14.3568 17.2367 14.3423 3 
18.669 18.6666 12.9103 3 
20.109 20.0992 14.3507 3 
18.6661 18.669 15.7818 3 
17.2326 20.1023 14.3481 3 
17.2286 17.2355 14.3436 3 
20.1023 17.2329 14.3457 3 
21.5419 18.6654 12.911 3 
24.4096 18.6686 12.9092 3 
21.5396 18.6675 15.783 3 
24.4088 18.6694 15.7812 3 
22.9741 17.2326 14.3458 3 
22.9755 20.1038 14.3461 3 
27.2782 18.6701 12.9085 3 
25.8434 17.2341 14.3448 3 
27.278 18.6704 15.7804 3 
25.8436 20.1057 14.3446 3 
1.43552 24.4141 12.9083 3 
1.43533 21.542 12.9083 3 
0.000632197 22.9782 14.3442 3 
1.43527 21.5422 15.7802 3 
1.43531 24.4141 15.7804 3 
2.86995 22.978 14.3444 3 
4.30405 21.541 12.9087 3 
4.30487 24.4139 12.9085 3 
7.17026 21.5378 12.9111 3 
7.17277 24.4139 12.9084 3 
5.73834 22.9774 14.3449 3 
4.30424 21.5416 15.7808 3 
7.1732 21.541 15.7813 3 
4.30409 24.4137 15.7813 3 
7.17028 24.4112 15.7845 3 
10.0406 24.4195 12.9028 3 
10.0291 21.5252 12.9229 3 
8.60642 22.978 14.3443 3 
10.0464 21.5431 15.7792 3 
10.0291 24.3994 15.7971 3 
11.4835 22.9861 14.3362 3 
12.9344 24.4511 12.8712 5 
15.7792 24.4511 12.8712 5 
12.9116 21.5314 12.9177 3 
15.802 21.5313 12.9177 3 
12.9215 21.5479 15.7744 3 
15.7921 21.5478 15.7743 3 
12.9116 24.4045 15.791 3 
15.802 24.4045 15.7909 3 
14.3568 22.9957 14.3266 3 
18.6729 24.4195 12.9027 3 
18.6845 21.5251 12.9228 3 
17.2301 22.9861 14.3362 3 
20.1071 22.978 14.3443 3 
18.6672 21.543 15.7791 3 
18.6844 24.3994 15.7971 3 
22.975 22.9774 14.3449 3 
21.5431 21.5377 12.911 3 
21.5407 24.4139 12.9084 3 
21.5402 21.5409 15.7813 3 
24.4091 21.5416 15.7808 3 
24.4092 24.4137 15.7813 3 
21.5431 24.4113 15.7845 3 
24.4085 24.4139 12.9084 3 
24.4092 21.541 12.9087 3 
27.2778 24.4141 12.9083 3 
27.278 21.542 12.9083 3 
27.278 21.5422 15.7802 3 
27.2779 24.4141 15.7804 3 
25.8433 22.978 14.3444 3 
1.43557 27.2861 12.9087 3 
0.0005876 25.8502 14.3445 3 
1.43532 27.2863 15.7808 3 
2.87021 25.8502 14.3448 3 
7.17207 27.2887 12.9113 3 
4.3051 27.2866 12.9092 3 
4.30394 27.2866 15.7821 3 
7.16883 27.2875 15.7867 3 
5.73864 25.8501 14.3462 3 
10.0141 27.2958 12.9184 3 
11.4401 25.8176 14.3942 3 
10.0178 27.2872 15.8063 3 
8.60234 25.8475 14.3526 3 
16.1944 27.4359 13.0585 5 
12.5192 27.4359 13.0585 5 
12.8901 27.3082 15.7898 3 
15.8235 27.3082 15.7898 3 
14.3568 25.8544 14.4469 5 
14.3568 28.6702 14.2927 5 
18.6994 27.2958 12.9183 3 
17.2735 25.8176 14.3942 3 
18.6957 27.2872 15.8063 3 
20.1111 25.8475 14.3526 3 
24.4082 27.2866 12.9092 3 
21.5414 27.2887 12.9112 3 
22.9748 25.8502 14.3462 3 
21.5446 27.2875 15.7867 3 
24.4094 27.2867 15.7821 3 
27.2777 27.2861 12.9087 3 
25.8431 25.8502 14.3448 3 
27.2779 27.2863 15.7808 3 
1.43502 1.44659 18.6532 3 
2.86893 2.88354 17.218 3 
0.000708386 2.88262 17.2171 3 