ITEM: TIMESTEP
83000
ITEM: NUMBER OF ATOMS
2001
ITEM: BOX BOUNDS pp pp pp
0.0000000000000000e+00 2.8712000000000000e+01
0.0000000000000000e+00 2.8712000000000000e+01
0.0000000000000000e+00 2.8712000000000000e+01
ITEM: ATOMS x y z 
1.3996 1.5346 1.42478 
2.93295 2.7656 2.78919 
4.35362 1.401 1.34486 
7.38854 1.48242 1.40828 
5.69188 2.84807 2.77183 
5.64357 0.0547519 2.65163 
9.70621 1.52583 1.35809 
8.44712 2.98227 2.84707 
11.5425 2.80599 2.82309 
11.4588 0.0500163 0.160956 
11.3459 2.83854 0.138577 
11.2135 0.0462274 2.82118 
12.8654 1.44091 1.5301 
15.3665 1.30429 1.55476 
14.1739 3.06389 2.89553 
14.3089 2.99267 0.0755299 
18.3961 1.45331 1.41649 
17.1659 2.91499 2.98772 
19.9837 2.92111 2.83308 
19.9897 0.120066 2.73746 
17.0275 0.0187681 2.84312 
19.8348 0.0952442 0.0317891 
20.062 3.0438 0.142019 
16.9408 2.96605 0.199365 
22.8972 2.95598 2.80753 
24.2418 1.42112 1.38018 
21.4377 1.5851 1.52505 
22.8129 0.0735791 0.0175717 
28.5185 2.68418 2.99961 
27.1907 1.4248 1.50129 
25.7442 2.85226 2.89591 
25.5844 0.0270229 2.87852 
1.61945 4.13021 1.48414 
1.42532 7.09511 1.47539 
2.8213 5.63058 2.85186 
2.89731 5.90801 0.188365 
0.00437621 5.58922 2.81632 
4.34733 4.28478 1.4441 
7.04783 4.33057 1.34396 
4.24987 7.39207 1.57403 
7.14292 7.10551 1.5315 
5.5505 5.68613 2.99042 
10.0834 4.33648 1.48328 
9.87725 7.2314 1.65129 
8.48148 5.83816 2.91584 
11.444 5.73098 2.79634 
12.8423 4.32156 1.37972 
15.7234 4.39088 1.44839 
12.7696 7.2996 1.39886 
15.5812 7.30165 1.53004 
14.3543 5.69683 2.77501 
14.1874 5.87192 0.0881592 
18.4951 4.34005 1.28973 
18.7868 7.29429 1.43582 
17.1779 5.83072 2.80698 
19.8858 5.68227 2.79862 
17.1162 5.88729 0.268347 
21.5274 4.55851 1.37497 
21.6094 7.28462 1.529 
22.8831 5.72879 3.10288 
24.3789 7.19636 1.48158 
24.4532 4.41927 1.37969 
27.3586 4.14536 1.41644 
27.395 7.22365 1.38609 
25.9617 5.69779 2.88974 
1.29865 10.0034 1.17963 
2.56771 8.72716 2.88258 
2.89728 11.4983 2.78337 
0.0218938 8.5552 2.91735 
2.91566 8.51323 0.0349084 
4.31869 9.93597 1.49592 
7.29177 10.0489 1.42413 
5.85489 8.6155 2.87851 
5.6829 11.5039 2.7305 
5.81102 8.53945 0.0667472 
10.1695 10.1953 1.57183 
8.60573 8.73828 2.83904 
11.4528 8.56055 2.89856 
8.59845 11.5661 2.76401 
11.5705 11.5645 3.03243 
11.5225 11.5132 0.125331 
8.56699 8.63425 0.0369052 
11.4286 8.54358 0.0394633 
12.7051 10.0092 1.55038 
15.8785 10.0394 1.36288 
14.2888 8.73387 2.90117 
14.3718 11.4433 2.721 
14.1435 8.76267 0.102224 
14.3216 11.3745 0.177095 
18.6879 10.1498 1.4351 
17.2079 8.70968 2.9412 
20.1696 8.77138 2.9982 
17.1377 11.679 2.92938 
20.0806 11.6176 2.80897 
20.1592 11.6296 0.00658562 
17.1239 8.55804 0.134412 
21.3351 10.068 1.44625 
23.0405 8.68667 2.86811 
23.0352 11.6046 2.7702 
24.3168 10.022 1.35495 
28.6459 11.4271 3.01222 
27.3166 10.0344 1.39744 
25.8038 8.58819 2.8624 
25.7103 11.4875 2.83144 
25.7868 11.3598 0.0207444 
28.6632 11.3577 0.0374585 
1.46367 12.9037 1.47353 
1.68966 15.987 1.54641 
2.97524 14.4119 2.85637 
0.16351 14.4517 2.72154 
2.87545 14.458 0.101185 
0.229356 14.3273 0.0152497 
4.48968 15.8906 1.36229 
4.31275 12.8972 1.19073 
7.14272 12.7534 1.36968 
7.09201 15.8169 1.48676 
5.81805 14.3236 2.76493 
10.0551 13.1296 1.34518 
10.0246 15.7149 1.57113 
8.48705 14.4993 2.82411 
11.5256 14.3673 2.8675 
8.66334 14.6049 0.0404516 
12.8845 12.9849 1.57337 
15.6226 12.8817 1.54366 
12.903 15.8291 1.42367 
15.7902 15.988 1.50905 
14.481 14.3783 2.95107 
14.328 14.4102 0.0884928 
18.6546 13.1339 1.39385 
18.8164 15.8857 1.5239 
17.2502 14.4114 2.68544 
20.2303 14.4551 2.88917 
21.4172 13.0018 1.26632 
21.5295 15.7831 1.45825 
22.9637 14.3702 2.84306 
24.348 15.6385 1.37728 
24.2563 13.0021 1.27455 
27.4203 12.9358 1.36468 
27.33 15.7625 1.55669 
25.6951 14.3186 2.72482 
25.8943 14.2671 0.0239899 
1.36009 18.7106 1.47469 
3.04112 17.4181 2.69495 
2.71905 20.1938 2.84107 
0.0850331 20.1349 2.86729 
4.2686 18.7869 1.33122 
7.24069 18.7196 1.39013 
5.72221 17.4345 2.81411 
5.77522 20.2 2.75556 
9.93931 18.7831 1.41498 
8.45319 17.2507 2.79128 
11.5198 17.3973 2.79739 
8.58125 20.2125 2.78457 
11.2049 20.1522 3.0805 
12.6243 18.6936 1.50276 
15.9001 18.5101 1.45538 
14.206 17.2847 2.902 
14.4901 19.8623 3.02165 
18.9108 18.7839 1.55698 
17.3689 17.3324 2.81381 
20.1811 17.2921 2.88346 
17.2297 20.0465 2.94417 
19.9482 20.1811 2.88639 
21.6127 18.5994 1.46043 
24.3215 18.5607 1.42358 
23.0714 17.1574 2.83195 
22.8625 20.2613 2.81869 
28.6602 17.1127 2.80407 
27.2816 18.6946 1.49538 
25.6239 17.1027 2.96399 
27.2309 18.5481 4.08686 
25.701 20.2671 2.87889 
25.9398 17.2154 0.165426 
1.36176 21.7135 1.38415 
2.83042 23.1043 2.8252 
1.40023 24.405 1.19643 
1.32785 24.3859 4.03979 
4.44262 24.4303 1.27549 
4.20778 21.5857 1.50326 
7.01946 21.4938 1.38775 
5.57002 23.0399 2.75342 
7.27073 24.3472 1.51524 
5.64075 22.7895 0.231875 
9.97352 21.5717 1.50598 
8.51873 22.7928 2.81657 
11.5078 22.982 2.71152 
9.89605 24.1837 1.32333 
11.3871 22.9448 0.109246 
12.8974 21.2341 1.67681 
15.6591 21.3519 1.66115 
14.3137 22.9728 2.90546 
15.6933 24.3058 1.36256 
12.7885 24.4586 1.49455 
14.2466 22.6413 0.0206584 
18.3908 21.5335 1.4015 
17.07 23.0691 3.03715 
20.0904 22.9589 2.68659 
18.3933 24.4994 1.34778 
17.1705 22.7496 0.0590233 
21.2563 21.4096 1.205 
24.0983 21.673 1.34881 
22.6907 23.2339 2.77997 
24.3544 24.4926 1.4712 
21.2537 24.4577 1.43747 
22.7363 23.1759 0.00079272 
28.67 22.9691 2.73439 
27.1575 21.5092 1.36305 
25.7899 23.0602 2.69891 
27.4084 24.5342 1.31396 
25.832 23.0489 0.0228183 
2.97997 28.6051 2.71951 
1.3847 27.218 1.52351 
2.95608 25.7239 2.53917 
2.87431 28.6228 0.0108029 
0.0288639 25.7736 2.79165 
0.0539569 28.5417 0.0484548 
4.28839 27.2967 1.21164 
7.20008 27.3663 1.3593 
5.62471 25.7354 2.89773 
8.54719 28.552 2.79345 
10.0493 27.2574 1.40446 
8.61149 25.7961 2.76205 
11.3591 25.7308 2.87266 
11.5716 25.797 0.00120258 
14.0168 28.6125 2.88134 
12.6938 27.2071 1.31866 
15.7683 27.1057 1.51995 
14.4227 25.8522 3.02404 
14.2652 25.9089 0.0198017 
18.4697 27.4377 1.38943 
17.1314 25.7262 3.00701 
20.1319 25.8009 2.77083 
23.0074 28.4972 2.85788 
21.3984 27.3708 1.48357 
22.9039 25.9549 2.99853 
24.3105 27.2988 1.39098 
22.778 25.9114 0.133687 
28.695 28.6679 2.87077 
27.1491 27.3297 1.41447 
25.8569 25.8613 2.89161 
1.38093 1.30802 4.2772 
1.43182 1.28713 7.30148 
2.79695 2.75429 5.72272 
2.84025 0.145362 5.58149 
4.16256 1.37356 4.22762 
7.01933 1.32824 4.31872 
4.41316 1.2858 7.18554 
7.27559 1.411 7.36215 
5.62268 2.89924 5.6541 
9.7811 1.41289 4.26488 
9.92202 1.3745 7.10516 
8.52262 2.97191 5.66772 
11.2993 2.8584 5.76089 
11.3165 0.114867 5.74888 
8.31835 0.0246656 5.77545 
12.8318 1.6184 4.40925 
15.6471 1.47193 4.40498 
12.7557 1.52227 7.13734 
15.7259 1.41734 7.23769 
14.214 2.87886 5.942 
14.2169 0.0481859 5.71387 
18.5437 1.43596 4.22936 
18.8477 1.5193 7.20104 
17.1837 2.81206 5.74907 
20.1554 2.84325 5.63693 
17.2427 0.127641 5.82829 
20.259 0.221743 5.85369 
21.5527 1.51594 4.10724 
24.464 1.37494 4.36982 
21.8334 1.3224 7.13206 
22.9589 2.85745 5.58012 
24.325 1.42106 7.16154 
23.0471 0.0454909 5.6242 
27.3025 1.22211 4.26148 
28.5255 2.73881 5.72086 
27.1997 1.34932 7.21429 
25.9098 2.94815 5.6983 
1.33685 4.1941 4.34273 
1.32876 7.19979 4.36664 
1.25356 4.29206 7.08474 
1.37634 7.11815 7.15278 
2.90504 5.77428 5.76134 
4.07765 4.19297 7.11525 
4.24435 4.22859 4.39519 
4.2119 7.13455 4.22689 
7.13923 4.33794 4.37415 
7.05873 7.20184 4.17049 
4.40313 7.0758 7.1417 
6.92091 4.13137 7.30178 
5.69636 5.6337 5.65525 
7.10983 7.04696 7.07741 
9.99999 4.37305 4.31852 
9.8346 7.28879 4.26817 
10.1578 4.17663 7.32436 
8.44701 5.66447 5.68959 
9.8327 7.06699 7.01107 
11.1012 5.77447 5.73351 
12.6605 4.23028 4.37785 
15.7009 4.34232 4.29096 
12.8605 7.10152 4.16564 
15.837 7.13057 4.28044 
12.8146 4.27226 7.37633 
15.7478 4.29313 7.11484 
13.0261 7.12683 7.06672 
14.1675 5.42747 5.74925 
15.6554 7.13287 7.05653 
18.7356 4.39667 4.35274 
18.6577 7.20731 4.25031 
18.7396 4.12497 7.319 
17.2704 5.80515 5.71278 
18.5685 7.17727 7.1405 
19.9106 5.81441 5.82189 
21.415 4.43073 4.41302 
21.4086 6.98805 4.38683 
24.4144 7.16836 4.36899 
24.5016 4.20365 4.2273 
24.3345 4.34316 7.07365 
21.4348 4.15974 7.12348 
21.4399 7.08041 7.254 
22.946 5.7164 5.69478 
24.4136 7.08252 7.08048 
27.3179 4.3315 4.32337 
27.3393 7.15332 4.28248 
28.5869 5.81521 5.7437 
27.3157 4.24985 7.1713 
25.7278 5.71916 5.68205 
27.3814 7.07414 7.20332 
1.34452 10.0211 4.36591 
1.45723 10.2664 7.17971 
2.74697 8.63006 5.78343 
2.84122 11.5723 5.45756 
4.3683 9.9239 4.38077 
6.99514 10.1067 4.32857 
4.23918 9.90842 7.1739 
5.79715 8.54607 5.67285 
7.03551 10.1215 7.06174 
5.69422 11.6195 5.68003 
10.1449 9.99377 4.43439 
8.47377 8.66379 5.73319 
9.9303 9.97293 7.14638 
11.4433 8.83053 5.77002 
8.65431 11.4486 5.64902 
11.593 11.6357 5.80809 
12.9028 10.2729 4.33971 
15.8974 10.024 4.16011 
13.0035 10.1893 7.18758 
14.5641 8.75611 5.77445 
15.7783 10.1788 7.427 
14.6044 11.3334 5.65084 
18.5697 9.99713 4.43909 
20.1319 8.50313 5.74278 
17.3367 8.61591 5.92664 
18.6338 10.2015 7.2167 
17.25 11.6693 5.58217 
20.0483 11.5283 5.68989 
21.5971 10.2646 4.30365 
24.3858 9.93833 4.3252 
21.3724 9.9076 7.12649 
23.1224 8.73422 5.77678 
22.9711 11.6473 5.6516 
24.3261 10.1738 7.03552 
27.2849 10.1006 4.37041 
28.7073 11.5982 5.54692 
28.6137 8.57908 5.77648 
26.0134 8.71134 5.61412 
27.4064 10.1521 7.08073 
25.7042 11.6725 5.72882 
1.32668 12.9908 4.16486 
1.3603 15.9358 4.38863 
1.27605 12.9439 7.0586 
1.41727 15.7989 7.29214 
2.79058 14.4374 5.66337 
0.115909 14.4432 5.68961 
4.26498 15.7127 4.3401 
4.3536 12.8838 4.28136 
7.07078 13.0336 4.26913 
7.08036 15.9613 4.16733 
4.14223 12.945 6.93393 
4.38334 15.7992 7.0836 
7.26439 13.1047 7.16018 
5.75161 14.6039 5.59366 
7.07865 15.7849 7.16804 
10.0419 13.0018 4.42574 
10.0424 15.8686 4.10387 
10.0718 12.9287 7.16779 
8.54854 14.4468 5.674 
10.0017 15.9482 7.16312 
11.3764 14.4456 5.69472 
12.9482 12.9535 4.15968 
15.7287 13.0618 4.28424 
12.8234 15.7983 4.33672 
15.9596 15.8353 4.3323 
12.9189 12.9514 7.05634 
15.7575 12.8682 7.23 
13.1039 15.916 7.31627 
14.3233 14.4625 5.76595 
15.8621 15.7975 7.07601 
18.7063 13.0673 4.23756 
18.7876 15.7834 4.30821 
18.4425 12.699 7.23417 
17.2189 14.2514 5.83141 
18.6929 15.8469 7.15744 
20.0057 14.2059 5.95195 
21.5412 12.9709 4.22661 
21.3903 15.78 4.36401 
24.3891 15.6352 4.37297 
24.5371 13.0042 4.1761 
21.5305 12.7584 7.16584 
21.6983 15.7115 7.24237 
23.0143 14.1448 5.62041 
24.512 13.1339 7.29287 
24.387 15.6935 7.04364 
27.1899 12.9694 4.27478 
27.2299 15.7566 4.47226 
27.3742 12.9711 7.2572 
25.9645 14.2703 5.89872 
27.4334 15.9515 7.328 
1.24831 18.6553 4.23031 
1.41501 18.7271 7.28833 
2.76625 17.447 5.62876 
2.79535 20.1731 5.90744 
4.29727 18.6935 4.27723 
7.42621 18.7883 4.42391 
4.35893 18.6272 7.25859 
5.78838 17.4469 5.53607 
7.29873 18.6998 7.2216 
5.73923 19.8892 5.88714 
9.96508 18.5447 4.38883 
8.6172 17.1842 5.75898 
10.076 18.5719 7.14286 
11.5485 17.3043 5.77683 
8.60906 20.2709 5.68636 
11.411 20.1404 6.00865 
12.7665 18.7386 4.39483 
15.8869 18.4219 4.34261 
13.033 18.8302 7.17201 
14.439 17.3757 5.81968 
15.872 18.6647 7.25667 
14.1937 20.1822 5.68093 
18.6615 18.59 4.53824 
17.3067 17.2015 5.94162 
18.7859 18.5398 7.19302 
20.3138 17.2147 5.84068 
17.1414 20.0006 5.70207 
20.1276 20.015 5.83139 
21.4229 18.7547 4.26338 
24.4322 18.6712 4.20576 
21.5941 18.6475 7.07926 
22.858 17.2381 5.58356 
22.906 19.9965 5.70396 
24.1749 18.5638 7.05798 
28.6429 17.2518 5.75264 
28.5853 20.05 5.66899 
25.7076 17.2102 5.77166 
27.2893 18.7211 7.07945 
25.8675 20.105 5.75789 
1.53163 21.6202 4.40257 
4.03136 24.5433 4.3549 
1.31786 21.6036 7.18414 
2.9612 23.0927 5.70567 
1.38996 24.4626 6.9165 
4.20747 21.6388 4.32446 
7.2222 21.5763 4.47708 
7.01916 24.351 4.36317 
4.21845 24.5235 7.30908 
4.29959 21.7022 7.2739 
7.20096 21.4651 7.20388 
5.64713 22.9012 5.80972 
7.29234 24.2106 7.16054 
10.0626 21.5797 4.42156 
10.0736 24.1345 4.20819 
9.92504 21.5096 7.16361 
8.70945 22.9356 5.6027 
11.5114 22.9234 5.85646 
10.0035 24.2322 7.04623 
12.8028 21.6187 4.36599 
15.7415 21.448 4.29161 
15.7834 24.4424 4.50746 
12.8365 24.5214 4.10734 
13.1264 21.6069 7.23409 
15.7445 21.4983 7.15225 
14.3522 22.965 5.74945 
12.843 24.4213 7.04514 
15.8402 24.5485 7.1492 
18.5288 21.5624 4.23618 
18.7107 24.3873 4.19611 
18.6356 21.4132 7.2218 
17.3149 22.9195 5.67687 
20.1152 22.8304 5.68537 
18.7297 24.4749 7.02476 
21.3819 21.6116 4.30126 
24.4047 21.6698 4.13921 
24.4983 24.4563 4.37836 
21.4991 24.5318 4.31949 
21.5942 21.4908 7.10674 
22.9385 22.8806 5.61486 
24.2797 24.3836 7.14616 
24.3171 21.5768 7.05394 
21.7077 24.3831 7.18689 
27.1992 21.5122 4.12134 
27.4767 24.4932 4.28836 
28.6507 22.9908 5.72114 
27.141 21.8116 6.97668 
25.6042 23.0691 5.60836 
27.2494 24.3755 7.20454 
1.5261 27.2527 4.18708 
1.5183 27.4488 7.17971 
2.88842 25.8839 5.81911 
0.0353944 26.0126 5.77535 
4.36064 27.4065 4.28532 
7.01726 27.043 4.19247 
5.66837 28.6335 5.69055 
4.4281 27.0865 7.21717 
5.70695 25.9436 5.8268 
7.18614 27.2724 7.22172 
9.96174 27.2429 4.28526 
8.65621 25.9562 5.73311 
9.92989 27.4246 7.25405 
11.3325 25.8416 5.76815 
12.8412 27.3225 4.38693 
15.606 27.3407 4.32341 
12.6869 27.4516 7.04167 
14.2475 25.9014 5.71316 
15.6985 27.38 7.30795 
18.7072 27.3847 4.14905 
17.2557 25.9869 5.70411 
18.7423 27.3889 7.05414 
19.9796 25.8499 5.68937 
21.4687 27.3108 4.32285 
24.4731 27.1669 4.28092 
21.5 27.1692 7.09724 
22.9967 25.9887 5.71357 
24.5276 27.1777 7.13609 
27.4153 27.3504 4.30556 
25.867 28.6085 5.73919 
28.6837 28.668 5.84604 
26.0167 25.8285 5.78268 
27.2901 27.3771 7.28898 
2.95107 2.78567 8.45913 
3.05038 0.0114382 8.45456 
0.0169831 2.77358 8.55726 
1.37365 1.40425 10.0139 
2.74018 2.94776 11.2409 
2.83206 0.0222581 11.4149 
5.6381 2.79536 8.59521 
5.66523 0.117241 8.71116 
4.40197 1.28946 10.1418 
7.02161 1.58509 10.1577 
5.74671 2.77763 11.6197 
4.35179 3.94895 10.0081 
8.50805 2.84102 8.71118 
11.4222 2.75347 8.77532 
11.3839 0.102168 8.62069 
8.59564 0.181132 8.72614 
8.62201 0.0377753 11.2948 
9.99235 1.44139 10.0336 
8.62467 2.8083 11.4848 
11.5912 2.6294 11.6173 
14.4931 2.95671 8.67682 
14.321 0.0428124 8.69687 
14.3496 0.119232 11.6664 
12.9624 1.48609 10.1333 
15.8075 1.38065 10.0624 
14.6009 3.03615 11.4397 
17.2141 2.68849 8.64057 
20.0622 2.9049 8.67533 
20.2212 0.0137365 8.66996 
17.1625 0.0473829 8.51957 
18.8107 1.42327 10.1737 
17.2705 2.86769 11.7239 
20.1824 2.87595 11.7896 
18.7057 4.02349 10.2402 
22.9122 2.9163 8.55485 
21.5596 1.53035 10.0521 
22.9996 2.96686 11.4567 
24.4119 1.51986 10.0264 
25.8265 2.97513 8.71925 
28.528 0.0475579 8.59169 
25.7269 0.104778 8.56499 
28.6382 2.85293 11.3472 
26.987 1.37045 10.1482 
25.8364 2.87293 11.6137 
2.78253 5.62595 8.59912 
0.163611 5.72983 8.69321 
1.48538 4.27393 10.0491 
1.46929 7.2867 9.90722 
3.03226 5.64079 11.5039 
0.168892 5.73009 11.5146 
5.59599 5.61911 8.53707 
4.31517 7.05961 10.0961 
7.25409 4.26363 10.003 
7.07145 7.03445 10.1118 
5.60868 5.70972 11.4256 
8.52124 5.70037 8.59941 
11.4404 5.83924 8.64974 
10.051 4.1715 10.035 
10.002 7.17585 9.95847 
8.73956 5.78732 11.6204 
11.2975 5.82037 11.4654 
14.2606 5.81818 8.51858 
12.9156 4.22661 10.0215 
15.8732 4.36902 9.88995 
12.9212 7.07394 10.1004 
15.9249 7.20896 9.92373 
14.3853 5.73048 11.4149 
17.3748 5.74035 8.5083 
20.0941 5.82528 8.60422 
18.6365 7.00221 10.2314 
17.1585 5.50271 11.3777 
20.1787 5.70605 11.555 
23.1271 5.68058 8.5793 
21.3686 4.37311 10.0806 
21.5982 7.17579 10.1424 
23.0683 6.13471 11.5765 
24.4937 4.32239 10.2769 
25.8234 5.68563 8.67207 
24.7124 7.31405 9.84965 
27.2757 4.23553 10.0713 
27.4122 7.07286 9.96281 
25.8789 5.87238 11.5717 
2.8548 8.40414 8.46821 
2.99379 11.7435 8.65326 
0.101225 11.5335 8.65244 
1.47012 10.0226 9.88966 
3.1139 8.83287 11.2956 
2.89176 11.417 11.4066 
0.0673884 11.5126 11.3081 
0.0946163 8.53195 11.4063 
5.82009 8.59228 8.39725 
5.80719 11.6137 8.50622 
4.48091 10.1438 9.87973 
7.22983 10.0486 9.94301 
5.94132 8.67972 11.3648 
5.90684 11.4825 11.3798 
8.55423 8.53886 8.5525 
11.3396 8.39976 8.30681 
8.69827 11.5456 8.47651 
11.5378 11.5037 8.52578 
11.4483 8.69705 11.1827 
10.0656 10.0021 9.74868 
8.60478 8.60612 11.4206 
8.6033 11.4523 11.437 
11.5232 11.3059 11.329 
14.2809 8.55844 8.56581 
14.1014 11.6161 8.70542 
13.0273 10.0733 9.88339 
15.7226 10.1263 9.91427 
14.443 8.62866 11.4474 
14.2409 11.4587 11.3589 
17.2826 8.55614 8.54097 
19.9582 8.45456 8.62861 
17.1835 11.5619 8.9342 
20.0783 11.4632 8.53898 
18.7733 9.98164 10.0011 
17.2597 8.67145 11.3118 
20.1803 8.53178 11.4459 
17.1835 11.4982 11.4261 
20.2298 11.4297 11.3087 
23.1337 8.54685 8.34672 
22.999 11.4304 8.68986 
21.568 10.2025 10.1251 
22.9132 8.72779 11.3178 
23.2775 11.6857 11.1047 
24.4951 9.95563 9.81496 
28.6642 8.55825 8.5007 
25.9545 8.74967 8.42873 
25.9371 11.3588 8.64897 
27.5499 10.0564 9.9225 
25.9946 8.90457 11.1424 
25.9627 11.4996 11.412 
2.91697 14.552 8.46259 
0.0359276 14.4385 8.6922 
1.43111 13.0016 10.2264 
1.54757 15.7787 10.157 
3.00197 14.4382 11.4828 
5.57009 14.1781 8.61313 
4.29535 13.029 10.1202 
4.42279 15.9439 10.0648 
7.17428 12.9261 10.1154 
7.23111 15.8644 10.1415 
5.77551 14.5417 11.5409 
8.69775 14.5211 8.52626 
11.3242 14.6329 8.49799 
10.1697 13.0102 9.99641 
10.1418 15.8706 10.1385 
8.50077 14.5116 11.4585 
11.5276 14.4833 11.3972 
14.5152 14.3091 8.5786 
12.9878 13.2751 10.0553 
15.8082 13.1359 10.0382 
12.8925 15.819 9.95296 
15.8552 15.8438 9.90476 
14.3584 14.559 11.3783 
17.238 14.4148 8.55382 
20.1535 14.382 8.47149 
18.7937 13.0423 9.94209 
18.7312 15.6921 9.77487 
17.297 14.2272 11.4855 
20.2871 14.4232 11.5756 
23.1316 14.1327 8.59537 
21.4303 13.0432 9.96959 
21.6498 15.6296 10.0107 
23.2026 14.3529 11.3449 
24.4685 15.7574 9.9732 
25.9791 14.4108 8.55908 
28.6252 14.4127 11.5202 
24.7161 12.9223 9.88902 
27.3077 13.0255 9.89606 
27.4228 15.8758 10.1654 
25.9363 14.2719 11.4427 
2.91777 17.4293 8.72603 
2.63405 20.3603 8.83434 
1.43595 18.6573 10.3171 
2.86096 17.4127 11.5375 
2.90008 20.1138 11.5811 
5.87178 17.224 8.6179 
5.77277 20.1323 8.74197 
4.26363 18.8542 10.014 
7.07898 18.765 10.1789 
5.63652 17.3353 11.5581 
5.57353 19.9316 11.5755 
8.70936 17.1996 8.77718 
11.5057 17.4867 8.67396 
8.67502 20.1676 8.80146 
11.5886 20.1468 8.67936 
9.93614 18.7865 9.8919 
8.69537 17.401 11.4933 
11.5027 17.1724 11.4912 
8.60293 19.9801 11.4701 
11.548 20.094 11.3978 
14.3143 17.2991 8.68054 
14.3341 20.1993 8.7911 
12.9674 18.7536 10.1022 
15.8579 18.8923 9.95385 
14.3444 17.1361 11.3324 
14.5582 20.0843 11.5459 
17.387 17.2339 8.65441 
20.3006 17.2956 8.85426 
17.4265 20.1769 8.67847 
20.0459 20.2941 8.61308 
18.7854 18.7328 10.1295 
17.2333 17.1411 11.3116 
20.2022 17.1042 11.3503 
17.202 20.1513 11.5296 
20.2928 20.1031 11.3848 
23.0808 17.1214 8.48771 
23.0302 20.1664 8.4827 
21.5483 18.6859 9.94077 
23.1125 17.3471 11.3638 
23.1016 20.0018 11.4274 
24.4668 18.5584 9.92307 
28.6368 20.1726 8.51524 
28.6818 17.3775 8.71718 
25.8295 17.1181 8.71067 
25.7116 20.1209 8.43213 
28.6676 17.2174 11.6616 
28.4539 20.1085 11.2405 
27.0695 18.7587 9.93289 
25.9776 17.3162 11.548 
26.0646 20.0984 11.5742 
2.70109 22.9955 8.73613 
1.45455 24.2945 10.0089 
1.13244 21.627 10.1009 
2.86495 23.07 11.4054 
5.69251 22.9627 8.66285 
4.17919 21.6444 10.0451 
7.31482 24.435 10.0254 
4.23288 24.4206 9.96093 
7.12707 21.644 10.2571 
5.66015 23.054 11.4833 
8.64214 22.7946 8.70496 
11.4324 22.7459 8.30833 
9.98824 24.3683 9.96559 
10.1385 21.5517 10.1168 
8.64998 23.0486 11.5015 
11.6286 22.9354 11.6261 
14.5542 23.1207 8.60019 
12.4713 24.273 9.89242 
16.1386 24.3412 9.9347 
14.4186 22.8986 11.4835 
15.9082 21.7772 10.0944 
12.991 21.6669 10.0126 
17.4474 22.9729 8.51016 
20.1493 22.9953 8.39775 
18.728 24.2263 10.1964 
17.3737 23.0211 11.6074 
20.0858 22.8758 11.6722 
18.6561 21.6565 10.2836 
22.9579 22.939 8.48874 
23.0191 22.8876 11.3451 
21.4647 21.6672 9.97241 
21.5531 24.3529 10.2495 
24.3336 24.4729 10.0607 
24.3424 21.442 9.96035 
28.7051 23.2192 8.62776 
25.7869 23.0364 8.70109 
28.7059 23.2332 11.3628 
26.0553 22.9449 11.6167 
27.189 21.6824 10.0495 
27.3571 24.5695 9.88594 
2.6591 25.9023 8.5958 
0.216498 25.923 8.59861 
0.126731 25.768 11.5197 
2.86925 25.9369 11.4018 
1.4193 27.3317 9.9485 
5.83481 25.6986 8.55358 
5.57459 28.6701 11.664 
7.41626 27.1902 9.9555 
4.55077 27.2694 9.98174 
5.70088 25.785 11.4305 
8.58581 25.7001 8.5862 
11.5025 25.7683 8.24335 
11.454 25.8333 11.4352 
11.2829 28.6972 11.525 
8.64062 25.8018 11.4857 
10.0545 27.2142 9.92744 
14.2815 26.0402 8.42039 
12.9228 27.2205 10.0383 
14.3685 25.2712 10.5965 
14.1685 26.6603 12.2116 
15.9731 27.2899 10.2051 
17.2579 25.9052 8.42101 
20.1461 25.6085 8.54573 
20.1413 28.6838 11.5262 
17.3365 25.7844 11.5279 
18.7499 27.2273 9.941 
20.0899 25.7039 11.4553 
17.3402 28.7095 11.3966 
22.957 28.6041 8.6868 
22.8755 25.8514 8.59799 
23.0687 28.6496 11.5761 
21.3989 27.1964 9.98801 
22.9754 25.6393 11.361 
24.4202 27.2141 10.0115 
25.8604 25.8293 8.39594 
25.7964 28.6618 11.4279 
27.292 27.1286 9.98748 
25.8004 25.7178 11.3583 
28.7025 28.6076 11.459 
1.23385 1.41242 12.8961 
4.06513 4.0719 12.9412 
1.29013 1.35749 15.8832 
2.90364 0.0947728 14.4516 
2.81969 2.6649 14.3793 
5.87103 0.142768 14.2451 
4.32035 1.48363 12.9195 
7.34379 1.36819 12.9073 
4.26546 1.47336 15.874 
7.27905 1.51105 15.9143 
5.66576 2.8775 14.433 
9.9427 1.50142 13.0259 
8.41323 2.97365 14.3153 
11.3814 2.85146 14.3427 
9.97251 1.48631 15.8579 
8.53894 0.0800646 14.4484 
11.3998 0.248522 14.3722 
12.9891 1.589 12.9323 
15.7312 1.30549 13.0009 
14.3689 2.814 14.3033 
12.8645 1.55062 15.8369 
15.7456 1.36534 15.8349 
18.6578 1.44145 13.172 
18.7411 1.4763 15.8695 
17.187 2.79651 14.5408 
17.2967 0.0151802 14.3809 
20.1154 2.89531 14.5293 
21.6182 1.40973 12.9765 
24.3983 1.18234 12.9633 
21.5703 1.38152 15.8124 
24.5289 1.47829 15.8942 
22.8303 2.96507 14.4522 
27.2881 1.47884 13.0746 
28.5611 2.94601 14.414 
27.2242 1.64537 15.9726 
25.5768 2.94239 14.5475 
28.613 0.119594 14.5212 
1.37784 4.25359 13.018 
1.56279 7.27297 12.7684 
0.0819936 5.82872 14.3317 
1.51666 4.31325 15.7487 
1.56481 7.40954 15.727 
3.01873 5.7984 14.4443 
7.06537 4.24981 12.7679 
4.32783 7.29282 12.8763 
7.34214 7.23898 12.8705 
5.66102 5.7694 14.128 
4.15526 4.36979 15.8196 
4.44343 7.18022 15.821 
7.18004 4.40824 15.6992 
7.12903 7.17505 15.6398 
10.0573 4.20418 12.8814 
10.1486 7.34937 12.9807 
11.6468 5.8241 14.333 
10.0861 4.25056 15.8485 
9.99304 7.30017 15.7551 
8.61313 5.83523 14.3931 
12.7898 4.21944 12.8032 
15.8605 4.39195 13.1506 
12.8492 7.3012 12.7893 
15.7469 7.38405 12.7764 
14.1514 5.78708 14.1291 
15.6993 4.32686 15.7606 
13.0556 4.35277 15.6353 
12.7387 7.40251 15.8247 
15.7268 7.28471 15.7807 
18.6298 4.42661 12.9629 
18.365 7.17523 12.8633 
18.5947 4.40051 15.8818 
18.6982 7.19795 15.8323 
17.0495 5.86341 14.5121 
19.8669 5.75827 14.4674 
21.4899 4.61953 12.9568 
21.328 7.15067 13.0449 
24.3842 7.57873 12.8421 
24.28 4.35835 12.8186 
23.1267 5.99935 14.3037 
21.6499 4.4895 16.0034 
21.609 7.29587 15.7657 
24.4313 7.26374 15.8203 
24.4037 4.4715 15.9372 
27.344 4.37118 12.9274 
27.2589 7.27805 12.7794 
25.996 5.87761 14.3526 
27.39 4.39815 15.8322 
27.3674 7.22753 15.6509 
1.59146 10.0387 13.0164 
3.02021 8.60616 14.2455 
0.00591287 11.511 14.3455 
1.48149 10.0475 15.8587 
0.00234962 8.68803 14.3925 
2.91466 11.5846 14.3932 
4.44243 10.1966 12.8876 
7.18929 10.1599 12.9113 
5.74767 8.63006 14.2881 
4.28482 10.1152 15.8025 
7.31393 10.1116 15.7315 
5.82348 11.4721 14.4098 
10.0464 10.1326 12.8802 
11.458 11.4415 14.3537 
8.55899 8.83579 14.3348 
10.1357 10.1302 15.7597 
11.4685 8.73935 14.4156 
8.62027 11.6193 14.3609 
12.8681 9.92381 12.9053 
15.7687 10.3524 12.8258 
14.3342 8.55996 14.1531 
14.1356 11.6883 14.2828 
13.0277 9.98506 15.7659 
15.6923 10.0377 15.6048 
18.8254 9.8724 12.8163 
17.2597 11.4494 14.1948 
17.2363 8.62708 14.2502 
20.0853 11.4068 14.2217 
18.5648 10.0663 15.6921 
20.1062 8.51413 14.4233 
21.5991 10.1056 12.8305 
24.4448 10.0329 12.6896 
23.0675 11.3278 14.1813 
22.787 8.63423 14.2634 
21.6308 10.1601 15.7842 
24.3761 10.0114 15.7128 
27.4702 10.0898 12.8652 
25.7477 11.3247 14.1826 
26.0374 8.57674 14.2734 
27.493 10.1496 15.9377 
1.42446 12.9035 12.9262 
1.34618 15.8223 13.1212 
3.04926 14.3185 14.112 
1.44903 12.9564 15.7987 
1.51214 15.6708 15.7204 
0.0442871 14.2462 14.4351 
4.4018 12.8695 12.8855 
4.30232 15.8705 12.9898 
7.48251 12.9035 12.7665 
7.28116 15.9332 12.9367 
5.86225 14.3779 14.2684 
4.44137 15.7798 15.8128 
4.36228 13.1912 15.8143 
7.43749 13.094 15.7122 
7.51925 15.9621 15.806 
10.4068 13.0641 12.8563 
10.1402 15.7158 13.0011 
8.83673 14.4417 14.2934 
11.7228 14.48 14.3845 
10.3343 13.0561 15.8394 
10.1205 15.9487 15.6684 
12.9204 12.8082 12.7735 
15.7516 13.0346 12.9821 
12.9374 15.8395 12.8738 
15.8219 15.8911 12.9046 
14.4131 14.5786 14.3523 
12.9077 12.878 15.9139 
15.7656 12.9118 15.5444 
13.1542 15.6412 15.917 
15.9305 15.763 15.7874 
18.8787 12.841 12.7354 
18.71 15.8898 12.7228 
20.1417 14.608 14.1238 
17.4104 14.3682 14.1026 
18.7527 12.9866 15.5778 
18.7889 15.6887 15.7797 
21.6955 12.857 12.8634 
21.8509 15.7716 12.6503 
24.4967 15.8582 12.8261 
24.3061 12.87 12.8286 
22.9346 14.3507 14.346 
21.5527 13.0436 15.6041 
21.6297 15.6221 15.8605 
24.2703 12.9993 15.6403 
27.2793 12.9076 13.0062 
27.1508 15.7614 13.0592 
25.9383 14.1593 14.3192 
24.6708 15.7989 15.9497 
27.2445 12.809 15.805 
27.3825 15.8192 15.6292 
1.44678 18.6673 12.998 
1.51469 18.7419 15.9138 
2.89196 17.0491 14.4022 
2.8501 20.1304 14.3777 
0.0606449 20.2157 14.4022 
0.136108 17.4403 14.3568 
4.26748 18.6565 13.1769 
7.12301 18.6168 12.8636 
4.27164 18.6427 15.808 
7.18639 18.695 15.7343 
5.80236 20.1568 14.3754 
5.79943 17.1479 14.3696 
10.1907 18.6304 12.7611 
8.64616 17.4164 14.3124 
11.4493 20.2952 14.3036 
10.0382 18.7488 15.9924 
8.63341 20.0567 14.4505 
11.5669 17.4012 14.3882 
13.1665 18.7048 12.9251 
15.8661 18.676 12.9807 
14.5362 20.1695 14.3073 
12.8646 18.8403 15.8047 
16.0457 18.8444 15.7969 
14.3295 17.264 14.4658 
18.6766 18.601 12.9539 
20.1766 19.948 14.2726 
18.7623 18.5539 15.8103 
17.4477 20.0606 14.4098 
17.4155 17.1332 14.3784 
20.1455 17.218 14.5138 
21.7508 18.4253 13.0489 
24.4163 18.6799 13.0037 
21.7731 18.5707 15.633 
24.4921 18.7163 15.9767 
23.2051 17.2111 14.4197 
23.0979 20.0636 14.3804 
27.3848 18.5905 12.9654 
25.904 17.2521 14.3443 
27.2572 18.6627 15.8735 
25.6743 19.9653 14.4054 
1.58201 24.5721 12.8832 
1.29406 21.6262 12.8683 
0.103743 23.0785 14.2701 
1.52048 21.6805 15.7635 
1.32187 24.448 15.7492 
2.93125 22.9456 14.4426 
4.23313 21.6092 12.9815 
4.22614 24.4459 12.9732 
7.2078 21.5426 12.872 
7.02148 24.4279 12.7768 
5.81454 22.9319 14.3107 
4.52435 21.5906 15.7463 
7.21568 21.7586 15.7374 
4.237 24.3843 15.7515 
7.023 24.6101 15.6858 
9.82499 24.4661 12.8863 
10.2038 21.5429 12.8118 
8.5976 22.9758 14.1479 
9.8679 21.6724 15.8472 
9.81581 24.5343 15.5879 
11.4423 22.8519 14.3762 
12.9665 24.3928 13.0277 
15.6215 24.279 13.077 
12.9846 21.4079 12.8928 
15.9657 21.414 13.0591 
12.9539 21.5216 15.9062 
15.9089 21.5749 15.611 
12.8218 24.4867 15.9022 
15.7849 24.4347 15.7936 
14.4538 22.8788 14.5638 
18.7962 24.4599 13.0013 
18.6021 21.4284 12.7344 
17.2102 23.0371 14.2807 
20.1434 22.6788 14.3251 
18.8391 21.4205 15.7991 
18.7775 24.4939 15.8951 
22.9466 23.0755 14.2331 
21.6721 21.3801 12.9241 
21.4704 24.3103 13.0211 
21.6607 21.4217 15.5935 
24.3516 21.5669 15.7827 
24.3534 24.5113 15.6947 
21.4163 24.2953 15.8648 
27.4035 24.3795 12.8297 
27.3084 21.5257 12.8762 
24.6334 24.4231 12.9906 
24.6757 21.527 12.9346 
27.259 21.5094 15.7672 
27.2515 24.5445 15.6938 
25.8221 23.0279 14.5937 
1.50976 27.4386 12.7578 
0.155975 25.9844 14.3548 
1.41709 27.2824 15.8284 
2.81104 25.7615 14.3698 
7.34306 27.5248 12.7494 
4.29012 27.1991 13.0919 
4.11605 27.4632 15.8112 
6.83721 27.5295 15.922 
5.57779 25.9465 14.4102 
9.86929 27.3722 12.9503 
11.4569 25.6917 14.3449 
9.88278 27.2862 15.8107 
8.54287 25.9068 14.4029 
16.1744 27.3278 13.0945 
12.3621 27.4331 13.0426 
12.831 27.213 15.6809 
15.8692 27.2105 15.7224 
14.3594 25.8393 14.4332 
14.128 28.5547 14.4139 
18.9273 27.1748 12.8872 
17.1443 25.7519 14.2437 
20.2373 28.6923 14.39 
18.6194 27.081 15.7457 
20.1688 25.84 14.4514 
24.3654 27.2791 13.0497 
21.6734 27.1588 13.0159 
23.0241 25.8892 14.3318 
21.4819 27.2539 15.9673 
24.5428 27.213 15.6406 
22.8118 28.6847 14.3841 
27.4115 27.2982 12.9251 
25.8564 28.7007 14.217 
26.0287 26.0282 14.2191 
27.3143 27.3598 15.8932 
1.43866 1.4073 18.6843 
2.76465 3.03834 17.0717 
0.354125 3.02941 17.4372 
2.88182 0.0640671 17.2162 
2.96664 2.89722 20.0029 
2.94559 0.225396 20.1706 
0.0823846 0.120672 20.1555 
4.42469 1.56261 18.5959 
7.15618 1.52013 18.7023 
5.70586 3.10303 17.1521 
5.72134 0.148445 17.375 
5.75733 2.90525 20.161 
10.1278 1.22725 18.6122 
8.61273 3.05694 17.2737 
11.6111 2.98337 17.2693 
11.5039 0.0235128 17.0852 
8.74653 0.0351912 17.2425 
8.69552 2.87179 20.0358 
11.7539 2.74458 20.13 
11.5938 0.0466626 20.1498 
8.38894 0.0495645 20.1085 
13.0986 1.39352 18.6372 
15.8887 1.34786 18.6662 
14.1804 2.74642 17.2165 
14.5444 2.94318 20.1533 
18.4957 1.45796 18.8875 
17.3466 2.83449 17.3221 
20.0153 2.8422 17.2896 
20.0663 0.00415895 17.3159 
17.2867 3.0686 20.0181 
20.0158 2.82825 20.1353 
21.5317 1.34316 18.8243 
22.716 2.87056 17.4193 
24.3727 1.44292 18.5236 
22.9688 2.77253 20.0748 
23.0944 0.0475373 20.112 
27.3019 1.13171 18.5451 
26.0051 2.94289 17.4305 
25.7175 0.0206577 17.1749 
28.659 2.69861 20.2184 
25.9503 2.68278 20.0961 
25.7684 0.0583573 20.0675 
1.54245 4.44114 18.8057 
1.52731 7.2954 18.8418 
2.76894 5.816 17.2156 
0.00879259 5.87168 17.2349 
2.91514 5.78006 20.1914 
0.0490432 5.65561 20.0481 
7.29049 4.40724 18.5233 
4.3496 4.35446 18.5334 
4.42051 7.15412 18.709 
5.66219 5.8196 17.0104 
7.23231 7.16133 18.5897 
5.73975 5.76443 20.1334 
10.0976 4.15605 18.5858 
8.63116 5.80296 17.1418 
10.1751 7.11516 18.6991 
11.3726 5.80187 17.2338 
8.72278 5.76667 20.0206 