ITEM: TIMESTEP
84043
ITEM: NUMBER OF ATOMS
18
ITEM: BOX BOUNDS pp pp pp
0.0000000000000000e+00 2.8712000000000000e+01
0.0000000000000000e+00 2.8712000000000000e+01
0.0000000000000000e+00 2.8712000000000000e+01
ITEM: ATOMS x y z c_cna 
14.3521 0.112043 11.4725 5 
15.9428 24.2637 9.63487 5 
14.3615 22.8754 11.4724 5 
12.958 24.451 10.0501 5 
17.1773 23.0294 11.4724 5 
11.5365 28.67 11.4726 5 
11.3824 25.8543 11.4726 5 
14.3567 25.8497 8.63842 5 
15.7555 27.2485 10.0501 5 
13.6076 26.5987 11.4725 5 
15.106 25.1007 11.4725 5 
12.7707 27.4357 9.63506 5 
17.3312 25.8451 11.4725 5 
12.9581 24.4509 12.8949 5 
15.943 24.2636 13.3101 5 
12.7708 27.4357 13.3101 5 
15.7556 27.2485 12.8949 5 
14.3569 25.8496 14.3066 5 
ITEM: TIMESTEP
84044
ITEM: NUMBER OF ATOMS
18
ITEM: BOX BOUNDS pp pp pp
0.0000000000000000e+00 2.8712000000000000e+01
0.0000000000000000e+00 2.8712000000000000e+01
0.0000000000000000e+00 2.8712000000000000e+01
ITEM: ATOMS x y z c_cna 
14.3521 0.112043 11.4725 5 
15.9428 24.2637 9.63487 5 
14.3615 22.8754 11.4724 5 
12.958 24.451 10.0501 5 
17.1773 23.0294 11.4724 5 
11.5365 28.67 11.4726 5 
11.3824 25.8543 11.4726 5 
14.3567 25.8497 8.63842 5 
15.7555 27.2485 10.0501 5 
13.6076 26.5987 11.4725 5 
15.106 25.1007 11.4725 5 
12.7707 27.4357 9.63506 5 
17.3312 25.8451 11.4725 5 
12.9581 24.4509 12.8949 5 
15.943 24.2636 13.3101 5 
12.7708 27.4357 13.3101 5 
15.7556 27.2485 12.8949 5 
14.3569 25.8496 14.3066 5 
