ITEM: TIMESTEP
84000
ITEM: NUMBER OF ATOMS
2001
ITEM: BOX BOUNDS pp pp pp
0.0000000000000000e+00 2.8712000000000000e+01
0.0000000000000000e+00 2.8712000000000000e+01
0.0000000000000000e+00 2.8712000000000000e+01
ITEM: ATOMS x y z 
1.47982 1.43969 1.51235 
3.08804 2.8358 2.72781 
2.98384 0.192579 2.87974 
2.69468 3.00134 0.133598 
4.38625 1.39909 1.34937 
7.16299 1.50135 1.08503 
5.90018 2.89625 2.91341 
5.87825 0.0581376 2.60208 
5.62447 2.94344 0.149318 
10.1517 1.44716 1.60683 
8.59767 3.00766 2.91743 
11.4114 2.90386 2.7668 
8.45914 0.0670583 2.58642 
12.9723 1.37928 1.50246 
15.9396 1.44232 1.49993 
14.3096 2.79631 2.86338 
18.5772 1.31591 1.36595 
17.3959 2.85922 2.87581 
20.0633 3.0923 2.89113 
20.0631 0.0427045 2.80102 
17.3606 0.0332598 2.94198 
19.9389 0.0147472 0.0643987 
22.9671 2.87478 2.68373 
24.3483 1.4837 1.22228 
21.4389 1.65841 1.47137 
22.8136 0.0313069 0.0870209 
22.9219 0.140159 2.65322 
28.578 2.89646 2.85004 
27.2064 1.56886 1.47171 
25.7297 2.93593 2.799 
28.3342 0.050373 2.89333 
25.9193 2.97336 0.0346714 
28.5856 0.108671 0.0590462 
1.44742 4.34333 1.46766 
1.60521 7.04539 1.40403 
1.48618 7.11131 4.0617 
3.03133 5.66111 2.89791 
2.9146 5.68409 0.0298761 
4.32781 4.32457 1.55661 
7.11329 4.37648 1.4899 
4.18455 7.19998 1.53565 
7.14646 7.12343 1.47677 
5.70264 5.67623 2.94563 
9.98906 4.28661 1.4332 
9.98038 7.07537 1.42384 
8.50293 5.70551 2.91986 
11.2177 5.75219 2.87119 
8.66835 5.63203 0.000988915 
11.4713 5.75037 0.110168 
12.895 4.32212 1.47772 
15.7444 4.13592 1.55398 
12.8192 7.02455 1.60721 
15.9815 7.24821 1.49424 
14.5426 5.59325 2.9854 
14.2921 5.99873 0.131865 
18.5883 4.15582 1.42831 
18.597 7.0107 1.49222 
17.2002 5.72922 2.86174 
20.0928 5.67912 2.89152 
17.1354 5.72717 0.249419 
21.4405 4.43317 1.4522 
21.5928 7.26311 1.39756 
22.933 5.83582 2.80529 
24.5087 7.22068 1.53121 
24.4619 4.34331 1.45639 
22.9575 5.65714 0.0963407 
28.6926 5.53187 2.80121 
27.336 4.23849 1.42561 
27.4703 7.07381 1.50014 
26.0193 5.70581 2.86405 
1.45696 10.0692 1.39307 
2.99541 8.7185 2.94257 
3.00526 11.5321 2.86523 
0.114887 11.5675 2.96597 
0.0879618 8.50969 0.0948031 
0.102779 11.573 0.0287816 
2.97894 8.59866 0.0673156 
4.43627 9.9746 1.43601 
7.23248 10.0846 1.51706 
5.84499 8.45785 2.93047 
5.75708 11.655 2.9051 
5.65389 8.38552 0.0777077 
5.68501 11.4665 0.121849 
10.1388 9.88994 1.55127 
8.59835 8.65275 2.76515 
11.3852 8.40401 2.81927 
8.68154 11.4748 2.83828 
11.4641 11.5221 2.79477 
11.2005 11.4429 0.158756 
8.42711 8.67932 0.00301516 
8.5651 11.4599 0.151026 
12.7191 9.94102 1.26535 
15.6599 10.0777 1.64955 
14.2593 8.73167 2.85326 
14.1529 11.4218 2.74062 
14.5024 11.5603 0.0360533 
18.5959 10.0531 1.51046 
17.5387 8.69159 2.77113 
20.1037 8.52116 2.8891 
17.2322 11.6752 2.96874 
20.019 11.5101 3.00065 
20.0386 11.6278 0.116765 
17.2931 8.64227 0.0340127 
17.236 11.3667 0.0935369 
21.5635 10.1494 1.58446 
23.0213 8.63435 2.95605 
22.9297 11.4777 2.92658 
24.5027 10.0731 1.51112 
22.9844 11.4725 0.118731 
23.0224 8.41281 0.0200933 
28.6667 8.61066 3.0254 
27.2179 10.0333 1.50103 
25.9493 8.58909 2.97047 
25.7468 11.5062 2.85019 
26.0481 11.4611 0.112332 
26.0186 8.3625 0.0052215 
1.55521 12.8247 1.34435 
1.54749 15.8169 1.4453 
2.96303 14.2346 2.82691 
0.0961943 14.5509 2.97036 
0.0967887 14.2042 0.0679768 
4.41559 15.8892 1.55325 
4.45096 12.8468 1.44356 
7.25374 13.0438 1.71248 
7.18787 15.7938 1.4432 
5.65043 14.3064 3.14759 
5.75535 14.4538 0.0224937 
10.0296 12.9172 1.4838 
9.83981 15.7223 1.37491 
8.38795 14.6454 3.00605 
11.4063 14.4291 2.91921 
8.64778 14.2591 0.0191607 
12.9308 12.9325 1.36188 
15.608 13.0498 1.55339 
12.5747 15.8315 1.5434 
15.5883 16.0189 1.21782 
14.2211 14.5834 2.82095 
20.0764 14.3282 0.0530213 
17.2374 14.2013 0.134329 
18.5688 12.9309 1.56529 
18.6303 15.956 1.30174 
17.1026 14.5456 2.7353 
18.7404 15.8032 4.08631 
20.0993 14.5211 2.75302 
21.5134 12.9576 1.39336 
21.6699 15.9885 1.22563 
22.8744 14.3281 2.74521 
24.3756 15.7649 1.45339 
24.4223 12.873 1.41982 
27.3737 12.8853 1.61842 
27.4206 15.7253 1.31228 
25.9569 14.3068 2.68724 
0.0350447 17.2544 0.0501741 
2.76424 20.0918 0.045777 
1.34167 18.7572 1.44545 
2.68321 17.3233 2.78782 
2.85242 20.1014 3.06502 
2.91509 17.1069 0.246749 
5.59189 19.9226 0.0347575 
4.27654 18.6962 1.55492 
7.13431 18.6925 1.32513 
5.76272 17.3906 2.84335 
5.60619 20.3464 2.80659 
10.1234 18.7253 1.35542 
8.54375 17.2055 2.81059 
11.4506 17.244 2.87157 
8.85006 20.1348 2.78172 
11.3667 20.2208 3.10801 
8.58663 17.3293 0.033154 
12.8414 18.706 1.40785 
15.7364 18.6714 1.44816 
14.4099 17.3685 2.82273 
14.2932 20.2555 2.95253 
18.7737 18.5407 1.30674 
17.1348 17.1153 2.88918 
20.307 17.2469 2.84011 
17.2255 20.0843 3.12152 
20.3362 20.2384 2.79992 
17.2378 17.3079 0.0061026 
17.3521 20.0746 0.0368801 
20.0937 20.1833 0.0949107 
23.1356 17.3056 0.0342642 
21.5631 18.9487 1.37534 
24.471 18.7358 1.4289 
23.0433 17.2955 2.82732 
22.8888 20.1653 2.93346 
28.6528 20.0533 2.81913 
28.6971 17.3301 2.93285 
27.2032 18.7489 1.44469 
25.8837 17.2476 2.79834 
25.952 20.3178 2.91195 
1.36584 21.6134 1.54541 
2.85849 23.0693 2.91082 
1.46639 24.429 1.50227 
2.86452 23.0347 0.0948612 
4.3127 24.3413 1.41156 
4.13722 21.4042 1.46516 
7.14268 21.5313 1.29942 
5.67796 22.7986 2.81053 
7.13862 24.3393 1.43346 
10.2207 21.4647 1.36778 
8.61669 22.8411 2.7208 
11.5591 22.9539 2.89511 
10.0756 24.4387 1.45038 
11.5225 22.876 0.0249969 
8.72301 22.9052 0.141461 
13.0546 21.4204 1.39482 
15.944 21.3612 1.45095 
14.3029 22.8432 2.90573 
15.6677 24.3613 1.36454 
12.9256 24.2447 1.60033 
14.3871 22.9282 0.0875393 
18.6017 21.4721 1.57263 
17.1777 23.0267 2.77332 
20.1835 22.8351 2.93118 
18.6023 24.3792 1.70102 
17.3789 22.962 0.127674 
21.5778 21.4928 1.26588 
24.4391 21.6252 1.67476 
23.0886 23.0836 2.79386 
24.4418 24.4022 1.46579 
21.3287 24.4783 1.34372 
22.9068 23.0116 0.0119003 
28.6597 23.1586 2.93122 
27.3783 21.5056 1.44877 
25.9698 23.0477 2.90277 
27.3587 24.565 1.41919 
25.9686 23.01 0.0677656 
1.52344 27.3661 1.41209 
2.78755 25.9036 2.98392 
0.0646748 25.815 0.0590115 
4.19404 27.4277 1.45112 
7.21709 27.3803 1.35674 
5.67362 25.8071 2.73948 
6.99146 27.4444 4.10092 
5.76423 25.9209 0.205668 
11.3567 28.6376 2.87859 
10.1078 27.013 1.37177 
8.41576 25.8911 2.84798 
11.5123 25.8148 2.89422 
11.3669 25.6329 0.120203 
8.31564 25.7719 0.215684 
14.4069 28.5564 3.09267 
12.9255 27.2243 1.29924 
15.8761 27.1791 1.48825 
14.2457 25.8329 2.80322 
14.3922 28.6996 0.0777512 
18.6092 27.0924 1.52088 
17.2016 25.7419 2.86583 
20.1498 25.9052 2.98148 
16.9648 28.6955 0.0657206 
19.9832 25.8126 0.087038 
17.1012 25.7329 0.111889 
21.4709 27.2419 1.35042 
22.8719 25.8505 2.75944 
24.5187 27.1983 1.30736 
25.7155 28.7016 2.76257 
28.6705 25.8164 2.81099 
27.2242 27.3692 1.35894 
25.6745 25.8455 3.03283 
1.46128 1.40571 4.28294 
1.48691 1.49848 7.22773 
2.67052 2.98744 5.70664 
0.011698 3.00794 5.65659 
0.179309 0.0812486 5.75968 
4.43205 1.44831 4.23973 
7.24261 1.44172 4.40571 
4.18417 1.4768 7.05941 
7.16525 1.62279 7.08125 
5.58212 2.92166 5.84471 
5.62932 0.0172057 5.77298 
10.0354 1.43207 4.31823 
9.8921 1.53739 7.16724 
8.62369 3.04935 5.66883 
11.3907 2.84467 5.63456 
8.49443 0.0102541 5.67938 
12.8807 1.28846 4.31145 
15.9945 1.34889 4.29889 
12.8982 4.09443 4.10226 
12.8507 1.23978 7.07981 
15.8765 1.37796 7.0903 
14.3316 2.77929 5.68717 
12.7826 4.09689 7.05985 
18.7914 1.55612 4.2197 
18.7652 1.52345 7.24375 
17.1766 2.87044 5.76059 
20.1129 2.90591 5.84873 
17.4217 0.0450154 5.83249 
20.2907 0.0537085 5.66156 
21.5153 1.50413 4.28552 
24.4417 1.53309 4.20268 
21.6002 1.48161 7.10398 
23.0083 2.81679 5.65582 
24.4691 1.48811 7.19176 
23.0383 0.169293 5.53965 
27.3259 1.52331 4.47911 
27.2162 1.31313 7.18183 
25.9418 2.94886 5.70903 
25.8533 0.136208 5.57264 
1.58671 4.31281 4.13169 
1.47187 4.38694 6.9605 
1.40771 7.26677 7.21011 
3.02072 6.00827 5.87662 
0.180044 5.71213 5.59218 
4.2636 4.20785 4.30268 
4.58038 7.09796 4.37036 
7.04425 4.33762 4.30032 
7.273 7.08556 4.5019 
4.24699 4.47348 7.29982 
4.4431 7.19908 7.2104 
7.19839 4.3116 7.21112 
5.77597 5.71107 5.87516 
7.16041 7.35336 7.20199 
10.0472 4.32828 4.1412 
9.86971 7.10708 4.39188 
10.0369 4.18681 7.08788 
8.48243 5.77578 5.77522 
10.1224 7.03799 7.21391 
11.3567 5.60902 5.64335 
15.8004 4.29314 4.28986 
12.8254 7.14009 4.45724 
15.6674 7.31415 4.22851 
15.7111 4.24037 7.15288 
12.9216 7.08392 7.0289 
14.4132 5.74203 5.83081 
15.7065 7.21396 7.08077 
18.6102 4.33972 4.33736 
18.5306 7.30293 4.29718 
18.7483 4.29642 7.19635 
17.1984 5.76231 5.71638 
18.7531 7.20933 6.95181 
20.3201 5.72874 5.97198 
21.6576 4.44209 4.34209 
21.5698 7.24805 4.42588 
24.4663 7.33995 4.44253 
24.1717 4.49993 4.21575 
24.4177 4.2439 7.07798 
21.653 4.23895 7.34594 
21.5426 7.48242 7.17991 
22.9375 5.7556 5.75636 
24.6063 7.22717 7.23714 
27.3293 4.21869 4.33296 
27.1676 7.15421 4.43265 
27.4206 4.32236 7.18282 
25.7058 5.766 5.69558 
27.4318 7.05588 7.06074 
1.42309 9.95441 4.19389 
1.43178 9.98086 6.97126 
2.91405 8.53126 5.90097 
3.00429 11.5662 5.80257 
0.0982578 11.6519 5.6405 
0.0393238 8.53151 5.64099 
4.44305 9.97393 4.38256 
7.09396 10.174 4.15949 
4.41069 10.1238 7.15141 
5.93016 8.68191 5.89055 
7.21177 10.1643 7.21154 
5.7607 11.533 5.80042 
10.1656 10.0715 4.21501 
8.70082 8.67077 5.71042 
10.2435 10.1664 7.08942 
11.3452 8.50104 5.73814 
8.71776 11.5665 5.73578 
11.4324 11.5475 5.72 
12.5573 9.99675 4.30767 
15.8185 10.0399 4.11425 
12.9532 10.0751 7.1143 
14.3794 8.69516 5.66612 
15.7494 10.1169 7.00656 
14.1787 11.4967 5.5099 
18.6479 10.067 4.15445 
20.1201 8.80745 5.62361 
17.1995 8.78275 5.85147 
18.7075 10.3006 7.01593 
17.1062 11.6491 5.86432 
20.159 11.4958 5.69791 
21.7444 9.89933 4.36645 
24.3616 10.2627 4.37145 
21.4464 10.1145 7.23346 
23.0906 8.51883 5.82939 
22.9347 11.6357 5.7432 
24.4481 10.1961 7.03063 
27.3844 10.2249 4.37292 
25.8302 8.78978 5.67166 
27.2908 10.3234 6.99998 
25.9486 11.9326 5.71395 
1.50545 12.951 4.23854 
1.37178 15.7931 4.43954 
1.60345 12.8371 7.17575 
1.34362 15.9837 7.14818 
2.8192 14.3898 5.62115 
0.0820493 14.4548 5.72433 
4.09844 15.7584 7.04973 
4.12169 15.9367 4.26012 
4.37978 12.8605 4.4108 
7.27927 12.9245 4.42722 
6.95469 15.8599 4.32905 
4.43183 12.821 7.29336 
6.9897 12.9396 7.22772 
5.56823 14.5227 5.83972 
7.07087 15.8198 7.29675 
9.98973 13.0714 4.21901 
9.91732 15.8435 4.27014 
10.038 13.051 7.17986 
8.52215 14.4457 5.91465 
9.95428 15.6715 7.25277 
11.4697 14.449 5.6354 
12.9899 12.9869 4.15921 
15.862 13.0639 4.11024 
12.7683 15.956 4.23727 
15.809 15.9045 4.31844 
12.8225 13.0602 7.06679 
15.8126 12.9832 7.09933 
12.8749 15.7938 7.15143 
14.4777 14.4586 5.68075 
15.9221 15.9168 7.09881 
18.7018 13.0537 4.35667 
18.7042 13.1217 7.08006 
17.3345 14.6487 5.76699 
18.6993 15.8293 7.16285 
20.1967 14.5048 5.80579 
21.513 13.1001 4.13049 
21.699 15.8212 4.22821 
24.1808 15.6073 4.33741 
24.4374 13.0203 4.4214 
21.5081 12.9492 7.27102 
21.5721 15.8593 7.22151 
22.8218 14.3331 5.83776 
24.5512 13.0573 7.27575 
24.5109 15.7109 7.11724 
27.272 13.1044 4.16477 
27.1014 15.9895 4.36733 
27.4814 13.016 7.22221 
25.9085 14.4556 5.71302 
27.3599 15.969 7.27768 
1.32567 18.7837 4.24458 
1.53284 18.8677 7.14857 
2.69739 17.3378 5.8912 
2.91883 20.0089 5.67008 
0.0298496 20.1539 5.85572 
4.33133 18.7976 4.1833 
7.0692 18.8174 4.12294 
4.32325 18.7342 7.16189 
5.59149 17.2714 5.67078 
6.91972 18.5457 7.00155 
5.71817 20.0852 5.61518 
10.1493 18.6719 4.31886 
8.46383 17.1737 5.66293 
9.85831 18.5993 7.02617 
11.2936 17.2203 5.72117 
8.4935 20.2266 5.68847 
11.504 20.1496 5.82133 
12.9185 18.4837 4.4103 
15.8552 18.6307 4.31443 
12.8796 18.6858 7.13909 
14.396 17.1201 5.70149 
15.7718 18.7049 7.06695 
14.4228 19.9137 5.68978 
18.7022 18.525 4.21555 
17.4345 17.3132 5.73552 
18.8084 18.7351 7.19639 
20.1135 17.3066 5.6523 
17.135 20.1709 5.83744 
20.2549 19.9897 5.88579 
21.5978 18.6694 4.32754 
24.3003 18.5551 4.48759 
21.8116 18.6617 7.23731 
22.9533 17.1512 5.72101 
23.2334 20.1185 5.90969 
27.2779 18.7707 4.3155 
24.6958 18.5997 7.12572 
28.6365 17.4856 5.86297 
25.824 17.2738 5.79317 
27.2109 18.7065 7.29692 
25.8325 20.126 5.79726 
1.53494 21.7161 4.25906 
1.32816 24.5001 4.36479 
1.53594 21.5559 6.94751 
2.91384 23.108 5.83318 
1.52816 24.3282 7.31193 
4.1626 24.5658 4.33786 
4.17621 21.6416 4.36605 
7.20175 21.6178 4.30455 
6.98595 24.3442 4.11222 
4.26177 24.4012 7.15914 
4.25512 21.4785 7.06578 
7.07664 21.689 7.1967 
5.55681 23.0725 5.52722 
6.97849 24.4456 7.1016 
9.79316 21.5328 4.51049 
9.84042 24.2872 4.22838 
9.95989 21.4581 7.17961 
8.3764 23.0223 5.72323 
11.2521 23.1412 5.64749 
9.90688 24.3286 7.23957 
12.8688 21.5642 4.30032 
15.7859 21.4873 4.22434 
15.6347 24.4275 4.39131 
12.8429 24.416 4.2927 
12.8038 21.4072 7.30052 
15.7797 21.5104 7.29863 
14.2802 22.7281 5.71514 
12.8018 24.4091 7.31186 
15.6761 24.4929 7.03192 
18.6452 21.432 4.30671 
18.7187 24.2462 4.37978 
18.6003 21.5409 6.88539 
17.0946 22.9257 5.59971 
20.0991 22.7575 5.64128 
18.6326 24.4065 7.11334 
21.7723 21.6336 4.49748 
24.3771 21.604 4.30929 
24.4086 24.5959 4.36626 
21.4523 24.4346 4.1843 
21.6347 21.6879 7.16072 
22.9034 23.2999 5.71263 
24.2842 24.5528 7.11865 
24.4183 21.6445 7.1901 
21.5821 24.5181 7.26207 
27.282 21.5717 4.51295 
27.1349 24.4203 4.43784 
28.5827 23.2202 5.70828 
27.3243 21.5801 7.10377 
25.7832 23.0537 5.62232 
27.2144 24.449 7.19955 
1.43163 27.3747 4.17993 
2.81533 28.6325 5.80489 
1.39764 27.3565 7.09486 
2.78071 25.8396 5.78543 
4.41387 27.3406 4.29555 
4.23214 27.2954 7.3658 
5.62338 25.8898 5.80166 
7.13546 27.1087 7.09186 
9.70638 27.2563 4.18128 
11.3112 28.6984 5.79491 
8.58361 25.8157 5.65839 
9.90351 27.3362 7.24237 
11.3362 25.649 5.80303 
12.8794 27.1616 4.38293 
15.8819 27.3292 4.48598 
14.3957 28.5733 5.70967 
12.8676 27.2527 7.03604 
14.3248 25.8972 5.75734 
15.9872 27.364 7.25899 
18.8542 27.3344 4.25691 
17.2947 25.8694 5.66814 
18.5235 27.3231 7.15164 
20.1422 25.7288 5.65503 
21.7365 27.3812 4.17005 
24.1954 27.2388 4.26664 
21.4235 27.2944 7.25273 
22.8516 26.0318 5.76023 
24.2325 27.4246 7.13074 
27.1286 27.2391 4.29676 
28.6635 26.0744 5.61809 
25.7078 26.0146 5.76176 
27.2398 27.3262 7.12567 
2.67513 3.02092 8.46603 
2.77797 0.0461324 8.64574 
1.49302 1.5209 9.96739 
2.79902 2.97902 11.388 
0.114069 2.78031 11.546 
5.45726 2.89342 8.64625 
5.71822 0.00742255 8.50958 
4.38269 1.38056 10.0668 
6.98872 1.43365 9.92869 
5.56213 2.96059 11.5557 
5.7089 0.0219419 11.3358 
8.47266 2.99794 8.58789 
11.4162 2.81646 8.67442 
11.3312 0.330783 8.60598 
8.4781 0.159736 8.57337 
9.89994 1.63448 10.2649 
8.54084 2.90662 11.7375 
11.4065 3.00898 11.6794 
14.4202 2.64613 8.59079 
14.3353 0.0906025 8.5974 
14.2787 0.299888 11.45 
12.6892 1.39543 10.0869 
15.785 1.51208 10.0673 
14.3111 2.83161 11.5584 
17.242 3.06549 8.76468 
19.9893 2.78514 8.68179 
17.2029 0.0761979 8.84505 
20.1202 0.149211 11.5004 
18.6816 1.53131 10.1506 
17.3225 2.81223 11.7022 
20.1107 3.07171 11.6529 
23.0889 2.68561 8.58731 
22.8574 0.0758336 8.49926 
22.9383 0.0337488 11.4341 
21.4173 1.4952 9.99994 
23.09 3.05489 11.6145 
24.3569 1.40847 10.0104 
28.6617 2.94433 8.50126 
25.7829 2.84399 8.64297 
28.66 0.189131 8.75981 
25.7974 0.143914 8.5374 
28.6559 0.174933 11.4887 
25.8952 0.0905327 11.3746 
27.2795 1.5292 9.97696 
25.8721 2.85398 11.3503 
2.70575 5.7237 8.6774 
0.192585 5.62707 8.54033 
1.35274 4.22003 10.0236 
1.51869 7.20168 9.99337 
2.89379 5.83694 11.6381 
0.197887 5.66573 11.3809 
5.6939 5.79319 8.70847 
4.22194 4.20862 10.1951 
4.1435 7.03766 10.1912 
7.17521 4.33372 10.1526 
7.29953 7.30114 10.1339 
5.84056 5.96072 11.6116 
8.52824 5.74519 8.65588 
11.4366 5.46222 8.65466 
10.0343 4.42757 10.1776 
10.063 7.08448 10.0708 
8.58274 5.80953 11.6197 
11.5434 5.98214 11.3803 
14.1581 5.51622 8.4213 
12.9017 4.21187 10.1248 
15.7999 4.42432 10.174 
12.8853 7.2016 9.7876 
15.8863 6.97979 10.0111 
14.3637 6.03799 11.4559 
17.2002 5.75452 8.37988 
20.0681 5.8309 8.4436 
18.8799 4.30555 10.1211 
18.6953 7.13139 9.9192 
17.1923 5.88061 11.5603 
20.0936 5.92632 11.4456 
22.9001 5.77158 8.66882 
21.613 4.18559 9.94928 
21.554 7.22552 9.9468 
23.0277 5.81962 11.3911 
24.4308 4.43522 10.0419 
24.3746 7.05838 9.99628 
25.9168 5.68817 8.44361 
27.3424 4.38406 10.1759 
27.4302 7.1257 10.001 
25.8589 5.83042 11.431 
2.80771 8.84548 8.51962 
3.0626 11.3218 8.711 
0.258833 11.3323 8.60478 
0.121866 8.71568 8.68121 
1.44816 10.2421 10.0975 
2.78453 8.46886 11.406 
2.99879 11.5373 11.5478 
0.0978076 11.6023 11.4859 
0.157208 8.72846 11.5829 
5.92286 8.60926 8.6782 
5.93909 11.6035 8.69678 
4.2745 10.0651 10.2343 
7.29988 10.0373 9.95761 
5.82421 8.59921 11.4428 
5.7824 11.5337 11.4705 
8.89234 8.6914 8.538 
11.6651 8.589 8.45232 
8.76043 11.4332 8.59131 
11.481 11.7107 8.48471 
11.3685 8.52329 11.3642 
10.0053 10.0057 9.96878 
8.59012 8.8144 11.5951 
8.64263 11.6348 11.4288 
11.6092 11.5283 11.2701 
14.3273 8.56048 8.44704 
14.5064 11.5274 8.56597 
12.9347 10.2982 9.7913 
15.959 10.0315 9.76926 
14.4923 8.69096 11.2032 
14.4604 11.5302 11.4944 
17.3036 8.42453 8.5165 
19.8824 8.66265 8.48265 
17.2424 11.6297 8.36714 
20.0397 11.5449 8.593 
18.6083 10.0161 9.85478 
17.3842 8.55689 11.3513 
20.1664 8.68456 11.2492 
17.2613 11.3899 11.4435 
20.3093 11.6121 11.4103 
23.0538 8.53312 8.60295 
23.2012 11.5163 8.44508 
21.4595 9.99174 9.88886 
22.9393 8.69305 11.3674 
23.1074 11.6621 11.1985 
26.0157 8.62017 8.54108 
25.9746 11.5523 8.60277 
24.6733 10.1846 10.051 
27.3065 10.1155 10.0715 
25.8939 8.61016 11.2945 
25.9697 11.7297 11.5915 
2.68287 14.4261 8.55183 
0.146834 14.4326 8.52454 
1.52635 12.879 9.95796 
1.44951 15.9986 9.91249 
2.92002 14.6162 11.3839 
0.120608 14.4373 11.3283 
5.64371 14.3078 8.7512 
4.24306 12.9942 10.1509 
4.28152 15.9088 9.90937 
7.09003 12.9574 10.0167 
7.33675 15.7145 9.97907 
5.6828 14.4716 11.399 
8.5468 14.2831 8.58376 
11.4809 14.4772 8.70016 
9.99597 13.01 9.96722 
9.92387 16.0152 9.79978 
8.58879 14.4738 11.546 
11.3472 14.3481 11.2966 
14.4691 14.5498 8.37427 
13.0725 13.2098 9.86199 
15.6411 12.9738 10.0888 
12.9846 15.7907 9.98085 
16.0052 15.7916 9.93231 
14.6233 14.5486 11.508 
17.3443 14.4421 8.67515 
20.1175 14.4933 8.7146 
18.5681 12.8075 10.132 
18.8815 16.0095 10.0721 
17.3535 14.5614 11.5292 
20.2061 14.3832 11.5161 
22.9598 14.4682 8.39642 
21.7824 13.1167 9.87441 
21.6744 15.7891 9.94189 
23.0231 14.433 11.3373 
24.4844 15.8614 10.0724 
24.5488 13.0825 9.91669 
26.0425 14.6173 8.41145 
27.4215 12.9249 9.98755 
27.5427 15.8431 9.96442 
25.9072 14.4026 11.4825 
2.9439 17.1631 8.34652 
2.90218 20.3096 8.6624 
0.0844566 17.5005 8.5986 
1.55631 18.6356 9.82801 
3.05851 17.2805 11.3153 
2.85611 20.1261 11.4146 
0.0353844 17.2974 11.4108 
0.0251346 20.1102 11.2825 
5.69391 16.9784 8.6019 
5.62372 19.9657 8.44697 
4.50976 18.7784 10.1098 
7.07095 18.5805 9.86448 
5.69793 17.1744 11.3477 
5.8755 20.0512 11.4587 
8.51908 17.3336 8.42918 
11.4771 17.3414 8.48597 
8.3762 20.053 8.48893 
11.4156 19.8663 8.46416 
10.0541 18.7547 9.99127 
8.55808 17.3288 11.3562 
11.5868 17.0844 11.3174 
8.7981 19.9629 11.3799 
11.476 20.0574 11.3805 
14.5236 17.319 8.52694 
14.439 20.0773 8.49382 
12.9002 18.4779 9.85417 
15.7984 18.6627 10.0168 
14.529 17.1349 11.4577 
14.3435 19.7978 11.3893 
17.2859 17.2989 8.66266 
20.3965 17.3355 8.66478 
17.3621 20.1098 8.68735 
20.0979 20.2426 8.61063 
18.7814 18.7996 9.95637 
17.4562 17.3888 11.486 
20.2947 17.3194 11.3547 
17.3436 20.0206 11.5059 
20.268 20.1943 11.5932 
23.1272 17.281 8.6161 
23.1709 20.1846 8.64333 
21.6149 18.8375 10.0431 
23.0478 17.2601 11.4365 
23.0338 20.1875 11.5977 
24.4886 18.8685 9.99761 
28.6036 20.2574 8.42138 
25.9824 17.1921 8.69112 
25.906 20.2866 8.61371 
27.1885 18.6431 10.0939 
25.8481 17.1651 11.4651 
26.0723 20.2585 11.2997 
3.0278 22.9538 8.6014 
0.0783664 22.7973 8.53448 
1.46085 24.348 10.1139 
1.38228 21.5091 10.0093 
2.8903 22.972 11.4809 
5.76918 22.9639 8.7292 
4.27772 21.4642 10.1333 
7.17684 24.5304 10.0119 
4.19917 24.4947 9.9731 
7.20252 21.5052 10.0489 
5.63794 22.9377 11.441 
8.59773 22.951 8.54891 
11.4358 22.8912 8.48509 
10.082 24.4161 10.0788 
10.0928 21.5143 9.96325 
8.60212 22.9558 11.3575 
11.6805 22.919 11.43 
14.3453 22.9363 8.3565 
15.7458 24.3223 9.4973 
14.2693 22.8773 11.5484 
15.8472 21.6016 10.0267 
12.879 21.4882 9.94434 
17.3847 22.9683 8.51175 
20.2111 23.1187 8.59791 
18.6015 24.5129 10.1774 
17.2361 22.9494 11.4722 
20.2325 22.9725 11.5641 
18.7637 21.6158 10.0604 
23.0816 23.1766 8.63897 
23.1624 22.995 11.4187 
21.7462 21.765 9.98527 
21.6129 24.5767 10.1816 
24.4761 21.575 10.0957 
25.8121 23.1047 8.46637 
27.3311 24.3563 10.0002 
28.6833 22.905 11.5041 
25.9598 22.9461 11.4879 
27.2266 21.6673 9.89115 
2.80727 26.0106 8.79097 
2.77783 28.6747 11.3878 
1.27946 27.2311 10.072 
2.82491 26.0649 11.4139 
5.62166 25.6577 8.63308 
5.80096 25.7723 11.4167 
4.2227 27.2655 10.0163 
7.07331 27.2075 9.87361 
8.57865 25.7724 8.65653 
11.2888 25.9857 8.51562 
8.53303 28.6706 11.6237 
9.87728 27.5113 9.9575 
8.6593 25.867 11.4756 
11.5102 28.6102 11.4487 
11.2705 25.9874 11.3642 
14.225 25.9726 8.52928 
15.6892 27.2454 10.0328 
13.6265 26.7717 11.4826 
14.9083 25.054 11.3712 
12.5985 27.4369 9.71785 
12.8317 24.6351 10.0853 
19.9653 28.6725 8.75698 
17.2825 25.9098 8.50211 
19.9714 25.7914 8.54799 
17.1266 28.6679 11.5242 
20.128 26.0135 11.6142 
18.5148 27.2828 10.1414 
17.1026 25.743 11.4962 
22.8716 26.1449 8.4707 
24.3362 27.4559 9.84327 
22.914 25.8443 11.4184 
21.4902 27.357 9.90309 
24.4939 24.7061 10.0556 
28.6877 25.8252 8.51715 
25.8636 25.9341 8.49517 
25.8484 25.8964 11.3609 
27.2855 27.1677 9.9115 
28.6721 25.8723 11.5492 
1.51212 1.41736 12.8942 
0.120101 2.60735 14.3236 
1.58933 1.31622 15.7532 
0.200089 0.0253132 14.3895 
3.0108 2.84272 14.5327 
4.22829 1.29591 12.7435 
6.93881 1.43604 12.9789 
4.27067 1.36189 15.9927 
7.1933 1.37225 15.8006 
5.75082 2.81596 14.5516 
10.1034 1.34401 12.965 
10.075 1.69274 15.9128 
11.5501 3.02815 14.6628 
8.50563 2.87429 14.3789 
11.3738 0.113775 14.6383 
12.9732 1.50333 13.0034 
15.7673 1.59754 12.9951 
14.4795 2.91904 14.3397 
12.9559 1.51039 15.7712 
15.9637 1.41532 15.8713 
14.498 0.118996 14.4279 
18.6114 1.42948 12.8755 
20.1678 2.91764 14.2993 
17.207 2.95652 14.2338 
18.7412 1.27895 15.7634 
21.558 1.41897 13.0034 
24.5001 1.38986 12.7808 
23.0192 2.90855 14.2333 
21.6568 1.29809 15.6861 
24.3254 1.39202 15.6933 
27.2221 1.26817 12.8913 
25.7935 2.88365 14.1861 
27.4065 1.27441 15.782 
1.47163 4.24746 13.1171 
1.49629 7.1433 13.0485 
2.98713 5.69132 14.3461 
1.43536 4.21149 15.796 
1.4569 7.12627 15.5882 
4.28775 4.25029 13.0522 
7.16599 4.54326 12.9822 
4.38164 7.06754 13.0287 
7.21616 7.23465 13.1721 
4.26084 4.31268 15.8817 
4.13308 7.03674 15.9746 
7.24852 4.37321 16.0185 
7.16027 7.36777 15.9115 
5.65056 5.7932 14.6551 
10.0304 4.45037 12.9978 
10.0702 7.23885 12.8117 
11.4856 5.62639 14.3367 
9.99786 4.29629 16.0353 
10.0859 7.04331 15.8113 
8.58692 5.70678 14.5192 
12.8863 4.48155 12.8614 
15.7254 4.48996 12.8812 
12.962 7.32247 12.9365 
15.7777 7.20616 13.0124 
15.7626 4.26419 15.8392 
13.0062 4.35439 15.8467 
12.8725 7.09793 15.8858 
15.9121 7.26214 15.7845 
14.3445 5.72578 14.4759 
18.8008 4.48226 12.9986 
18.7256 7.33611 13.0551 
18.8967 4.52762 15.8397 
18.804 7.43069 15.8867 
17.2275 5.92615 14.4733 
20.2035 5.97154 14.4459 
21.6336 4.42252 12.9413 
21.6681 7.18779 12.7821 
24.4795 7.41214 12.7751 
24.4875 4.44256 12.8919 
22.9914 5.66373 14.291 
21.4296 4.30526 15.6269 
21.7038 7.24586 15.7916 
24.4383 7.15102 15.6733 
24.462 4.42454 15.7922 
27.216 4.31226 12.9196 
27.4018 7.30557 12.8863 
27.3007 4.28594 15.775 
27.335 7.19846 15.756 
25.958 5.8488 14.3593 
28.7078 5.57304 14.3741 
1.50387 10.1217 12.7992 
2.96353 8.62901 14.3277 
2.80696 11.5636 14.2027 
1.49316 10.0276 15.6222 
0.04503 8.57616 14.4787 
0.0417335 11.5261 14.4373 
4.30427 9.92881 12.8335 
7.34547 10.1091 12.8499 
5.79873 11.4385 14.1927 
4.22624 10.0447 15.6991 
7.4646 10.0013 15.4991 
5.73416 8.57513 14.4077 
10.1469 10.2742 12.6624 
11.6513 8.38916 14.2386 
8.75426 11.3909 14.1151 
8.76936 8.56846 14.1911 
11.7593 11.5609 14.2877 
10.2484 10.0628 15.4626 
13.1515 9.98164 12.7793 
15.9661 9.84645 12.7693 
14.5352 11.5658 14.3031 
12.8953 9.91111 15.7896 
15.9231 10.0123 15.6721 
14.4641 8.65663 14.3583 
18.7561 10.0811 12.8969 
17.4488 8.7978 14.2727 
20.1913 11.6131 14.3351 
20.244 8.82584 14.3123 
18.7781 10.279 15.5498 
17.2486 11.4894 14.3999 
21.6353 10.1574 12.7045 
24.4366 10.15 12.8483 
21.7434 10.0432 15.84 
24.4449 10.0989 15.8554 
23.0407 11.5821 14.4598 
23.1862 8.77077 14.3905 
27.4534 10.0031 12.7802 
25.9536 11.3838 14.2659 
25.8367 8.79476 14.2892 
27.2311 9.90344 15.7437 
1.45161 13.0216 12.7169 
1.45401 15.9067 12.882 
0.168405 14.3887 14.1078 
1.56847 13.033 15.625 
1.31823 15.8504 15.7545 
2.889 14.5325 14.4168 
4.12987 13.0187 12.6803 
4.2743 15.9406 12.9724 
6.99754 13.0986 12.6772 
7.29454 15.9021 12.7607 
5.59212 14.343 14.2662 
4.266 15.9043 15.9779 
4.35889 12.7883 15.6952 
7.1679 12.8153 15.5976 
7.0309 15.6481 15.7321 
11.641 14.2479 14.1761 
10.1544 12.989 12.7435 
10.1039 15.795 12.8404 
8.44793 14.1969 14.143 
10.2148 12.8952 15.4827 
9.85998 15.6564 15.4561 
13.0646 13.0499 12.8679 
15.8824 12.9542 13.0311 
13.1074 15.8024 12.8142 
15.9216 15.7849 13.0232 
12.9982 12.8565 15.8888 
15.9636 12.9165 15.8805 
12.8957 15.9096 15.8285 
15.6758 15.6775 15.962 
14.2777 14.242 14.4304 
18.7431 13.1897 12.9802 
18.7619 15.8233 12.9147 
18.6814 12.8807 15.7658 
18.7584 15.7127 15.911 
20.0923 14.5273 14.4319 
17.2687 14.5543 14.4249 
21.6476 13.0481 12.7334 
21.6162 16.0019 12.8896 
24.2746 15.8156 12.8632 
24.4554 13.1039 13.0221 
23.0325 14.4173 14.2806 
21.5637 12.9359 15.8016 
21.5975 15.8818 15.7271 
24.4992 12.7985 16.0165 
24.417 15.6423 15.7974 
27.3602 13.0296 12.8753 
27.3147 15.7622 12.7011 
26.0486 14.4203 14.4326 
27.3227 12.7547 15.6764 
27.4232 15.8954 15.6056 
1.54151 18.604 12.7665 
2.79345 17.3095 14.2024 
1.40397 18.699 15.7674 
2.9166 20.0216 14.4577 
4.31489 18.8303 12.8207 
7.1728 18.7113 12.8174 
5.78144 20.2423 14.3351 
5.6726 17.4045 14.181 
4.34161 18.7092 15.6984 
6.90264 18.5445 15.7328 
10.0336 18.5629 12.8518 
11.3729 19.853 14.1947 
8.4612 17.1576 14.3333 
11.39 17.2194 14.1848 
9.87493 18.6227 15.7046 
8.60305 20.027 14.3843 
12.9242 18.4598 12.6926 
15.677 18.5442 12.9053 
14.2453 19.9708 14.1821 
14.3362 17.0945 14.3085 
12.7947 18.5661 15.5521 
15.7849 18.4552 15.8043 
18.6052 18.5226 12.98 
17.1463 19.8495 14.2131 
20.158 20.0412 14.5614 
18.6284 18.7421 15.7211 
20.1744 17.1602 14.4774 
17.3493 17.0366 14.4169 
21.6726 18.7372 12.9491 
24.4951 18.5831 12.8988 
21.4819 18.6712 15.9001 
24.4633 18.6902 15.8402 
23.1204 19.9928 14.584 
23.0333 17.3732 14.5339 
27.3209 18.7271 12.77 
25.8972 17.0729 14.2677 
28.6504 19.9695 14.2547 
28.708 17.1938 14.0683 
27.2481 18.6377 15.7925 
25.8643 20.0926 14.3736 
1.40489 24.4284 12.848 
1.49478 21.4399 12.956 
2.88798 22.9983 14.1459 
1.3569 21.7433 15.7253 
1.35955 24.3673 15.8309 
4.33668 21.3948 12.771 
4.38311 24.2548 12.8859 
7.40918 21.4776 12.8074 
7.19419 24.3183 12.688 
5.87151 22.8648 14.2355 
4.15228 21.534 15.6757 
7.04767 21.5859 15.6959 
4.39986 24.298 15.8014 
7.28848 24.2239 15.6666 
11.3283 23.0289 14.1386 
10.0344 24.3273 12.7035 
10.0626 21.567 12.8335 
10.0099 21.5627 15.7445 
10.0092 24.2533 15.7629 
8.72815 22.7797 14.419 
12.7732 24.4367 12.9763 
15.9986 24.1438 13.2784 
12.7933 21.2759 12.8207 
15.6073 21.4027 12.8419 
14.2028 22.7848 14.1376 
12.8502 21.3004 15.5881 
15.6874 21.5678 15.6851 
12.9107 24.4263 15.6415 
15.677 24.3226 15.6547 
18.7892 24.3955 12.8339 
18.9436 21.4708 12.872 
17.343 22.6193 14.2087 
18.6937 21.311 15.884 
18.7706 24.3085 15.8038 
20.0827 23.0011 14.5417 
21.6752 21.6871 13.1007 
21.6081 24.3072 13.1387 
24.4096 24.4431 12.8632 
24.3897 21.5031 12.8848 
23.1019 22.9767 14.5744 
21.6316 21.5982 15.8995 
24.5133 21.6778 15.7861 
24.4551 24.5579 15.7986 
21.5689 24.509 15.7868 
27.3846 24.3701 12.8383 
27.3988 21.4641 12.9384 
25.8535 23.1265 14.2005 
28.5626 22.9575 14.3715 
27.1394 21.7321 15.7663 
27.2233 24.4186 15.689 
1.35004 27.1998 12.9496 
3.03222 28.6867 14.3255 
1.48655 27.2663 15.8335 
3.01257 25.81 14.3875 
4.09442 27.2329 15.8988 
4.10455 27.2206 12.8618 
7.0667 27.2159 12.9801 
5.61469 28.5434 14.4082 
7.17282 27.298 15.8019 
5.67247 25.6022 14.4431 
11.1704 25.7503 14.2227 
10.0281 27.4061 12.9313 
8.73219 28.6521 14.4423 
10.0584 27.1131 15.8226 
8.72174 25.7408 14.4048 
12.6775 27.4443 13.2199 
15.7108 27.2192 12.6907 
14.4114 25.7815 14.2275 
13.0063 27.2485 15.7096 
15.6793 27.2935 15.6927 
18.5754 27.37 12.9674 
19.9711 25.8856 14.1508 
19.9806 28.6959 14.2856 
18.7564 27.1017 15.8355 
17.1273 25.8119 14.4682 
17.29 28.6772 14.4111 
21.4884 27.2295 13.0237 
24.2667 27.1781 12.8133 
22.9486 25.7888 14.3279 
23.0644 28.5301 14.1608 
21.5545 27.2526 15.7197 
24.3605 27.3743 15.7828 
27.1966 27.26 12.7055 
28.6845 25.8606 14.1785 
25.8117 25.8984 14.174 
25.83 28.6806 14.3667 
27.2924 27.246 15.7728 
1.51065 1.49428 18.7411 
2.78977 2.88083 17.1856 
2.76641 0.0054383 17.2935 
2.97644 3.01343 20.2172 
4.33355 1.49853 18.6304 
7.02365 1.42601 18.8131 
5.91489 2.91857 17.1581 
5.70112 3.00404 20.1116 
5.57869 0.05966 20.1121 
10.0149 1.30188 18.6711 
8.49855 2.7653 17.4557 
11.5345 2.81515 17.3629 
8.51582 2.64603 19.9208 
11.5261 2.87036 19.955 
12.9782 1.35968 18.6503 
15.8699 1.45347 18.5929 
14.4917 2.79911 17.2511 
14.2373 0.0735497 17.3193 
14.3119 2.78312 19.974 
14.3943 0.0331706 20.0741 
18.6147 1.09112 18.6708 
17.2206 2.96004 17.227 
20.0986 2.71522 16.9336 
17.2468 2.84449 19.8656 
19.9763 2.84135 19.9584 
17.1009 0.0559787 20.1418 
21.4045 1.64777 18.564 
23.0376 2.86623 17.013 
24.2424 1.50496 18.6589 
22.9619 2.81145 20.0919 
28.6139 2.88943 17.2619 
27.1554 1.56324 18.6959 
25.7152 2.80474 17.0774 
25.8662 0.0133885 17.3761 
27.2667 4.00724 18.6658 
28.6804 0.00952796 17.3963 
28.682 0.0971441 20.099 
28.6007 2.90449 20.2218 