ITEM: TIMESTEP
85046
ITEM: NUMBER OF ATOMS
18
ITEM: BOX BOUNDS pp pp pp
0.0000000000000000e+00 2.8712000000000000e+01
0.0000000000000000e+00 2.8712000000000000e+01
0.0000000000000000e+00 2.8712000000000000e+01
ITEM: ATOMS x y z c_cna 
15.7916 21.5946 7.21706 5 
15.7916 24.4103 7.06317 5 
13.9541 22.8289 8.4514 5 
15.7915 23.6656 9.28829 5 
12.9574 24.4149 10.0375 5 
14.3692 23.016 11.4362 5 
15.7916 21.4405 10.0327 5 
17.6291 22.8289 8.45133 5 
18.6258 24.4149 10.0374 5 
17.214 23.0161 11.4362 5 
14.3692 25.8137 8.63876 5 
15.7916 25.1641 10.7866 5 
13.9539 26.001 11.6237 5 
15.7916 27.3893 10.0422 5 
17.214 25.8137 8.63873 5 
17.6293 26.0009 11.6236 5 
15.7917 24.4194 13.0117 5 
15.7916 27.2352 12.8578 5 
ITEM: TIMESTEP
85047
ITEM: NUMBER OF ATOMS
18
ITEM: BOX BOUNDS pp pp pp
0.0000000000000000e+00 2.8712000000000000e+01
0.0000000000000000e+00 2.8712000000000000e+01
0.0000000000000000e+00 2.8712000000000000e+01
ITEM: ATOMS x y z c_cna 
15.7916 21.5946 7.21706 5 
15.7916 24.4103 7.06317 5 
13.9541 22.8289 8.4514 5 
15.7915 23.6656 9.28829 5 
12.9574 24.4149 10.0375 5 
14.3692 23.016 11.4362 5 
15.7916 21.4405 10.0327 5 
17.6291 22.8289 8.45133 5 
18.6258 24.4149 10.0374 5 
17.214 23.0161 11.4362 5 
14.3692 25.8137 8.63876 5 
15.7916 25.1641 10.7866 5 
13.9539 26.001 11.6237 5 
15.7916 27.3893 10.0422 5 
17.214 25.8137 8.63873 5 
17.6293 26.0009 11.6236 5 
15.7917 24.4194 13.0117 5 
15.7916 27.2352 12.8578 5 
