ITEM: TIMESTEP
87039
ITEM: NUMBER OF ATOMS
23
ITEM: BOX BOUNDS pp pp pp
0.0000000000000000e+00 2.8712000000000000e+01
0.0000000000000000e+00 2.8712000000000000e+01
0.0000000000000000e+00 2.8712000000000000e+01
ITEM: ATOMS x y z c_cna 
14.1837 0.180705 8.19599 5 
14.2809 0.0835388 11.7242 5 
12.9805 1.38406 10.0181 5 
15.7639 1.52672 10.0158 5 
17.1961 0.063651 11.4533 5 
15.8119 24.3196 10.0393 5 
18.6543 24.422 9.84742 5 
17.2565 22.8962 11.5025 5 
20.0277 23.0486 11.498 5 
14.3974 25.8981 8.63461 5 
12.8377 27.3125 10.0159 5 
14.3008 25.8802 11.4533 5 
15.176 27.9003 9.86519 5 
17.1782 28.679 8.6346 5 
17.1831 25.8932 8.48464 5 
17.8417 25.2346 11.8194 5 
18.7568 27.2644 10.0392 5 
20.1802 25.8197 11.5025 5 
16.5822 26.4942 10.6569 5 
15.825 24.4361 12.8761 5 
18.8783 24.1979 13.3756 5 
15.8394 27.2371 12.876 5 
18.6402 27.2514 12.876 5 
ITEM: TIMESTEP
87040
ITEM: NUMBER OF ATOMS
23
ITEM: BOX BOUNDS pp pp pp
0.0000000000000000e+00 2.8712000000000000e+01
0.0000000000000000e+00 2.8712000000000000e+01
0.0000000000000000e+00 2.8712000000000000e+01
ITEM: ATOMS x y z c_cna 
14.1837 0.180705 8.19599 5 
14.2809 0.0835388 11.7242 5 
12.9805 1.38406 10.0181 5 
15.7639 1.52672 10.0158 5 
17.1961 0.063651 11.4533 5 
15.8119 24.3196 10.0393 5 
18.6543 24.422 9.84742 5 
17.2565 22.8962 11.5025 5 
20.0277 23.0486 11.498 5 
14.3974 25.8981 8.63461 5 
12.8377 27.3125 10.0159 5 
14.3008 25.8802 11.4533 5 
15.176 27.9003 9.86519 5 
17.1782 28.679 8.6346 5 
17.1831 25.8932 8.48464 5 
17.8417 25.2346 11.8194 5 
18.7568 27.2644 10.0392 5 
20.1802 25.8197 11.5025 5 
16.5822 26.4942 10.6569 5 
15.825 24.4361 12.8761 5 
18.8783 24.1979 13.3756 5 
15.8394 27.2371 12.876 5 
18.6402 27.2514 12.876 5 
