ITEM: TIMESTEP
87039
ITEM: NUMBER OF ATOMS
2001
ITEM: BOX BOUNDS pp pp pp
0.0000000000000000e+00 2.8712000000000000e+01
0.0000000000000000e+00 2.8712000000000000e+01
0.0000000000000000e+00 2.8712000000000000e+01
ITEM: ATOMS x y z c_cna 
1.43383 1.44561 1.42264 3 
2.86806 2.88202 2.85748 3 
2.86855 0.00961442 2.85775 3 
4.3023 1.44615 1.42027 3 
7.16926 1.44741 1.41538 3 
5.73534 2.88425 2.85344 3 
5.73647 0.01009 2.85418 3 
10.0384 1.44983 1.41176 3 
8.59902 2.88914 2.84455 3 
11.4681 2.89627 2.83864 3 
8.60135 0.010678 2.84663 3 
11.471 0.0139378 2.84295 3 
12.9116 1.45272 1.4124 3 
15.7888 1.45086 1.41516 3 
14.3505 2.89337 2.84292 3 
14.3454 0.0189961 2.84512 3 
18.6631 1.44786 1.41736 3 
17.2293 2.88916 2.84707 3 
20.0999 2.8838 2.85297 3 
17.2245 0.0146331 2.84957 3 
20.0991 0.0120549 2.85309 3 
22.9706 2.88275 2.85635 3 
24.4062 1.44618 1.42181 3 
21.5352 1.44664 1.4199 3 
22.9709 0.0112549 2.85585 3 
28.7109 2.88133 2.85869 3 
28.7111 0.00952128 2.85871 3 
27.2764 1.44565 1.42284 3 
25.8412 2.88186 2.85794 3 
25.8414 0.0100453 2.85774 3 
1.43347 4.31756 1.42258 3 
1.43332 7.18896 1.42312 3 
2.86775 5.75401 2.85783 3 
4.30174 4.31906 1.42003 3 
7.16844 4.3223 1.41481 3 
4.30197 7.19095 1.4209 3 
7.16981 7.19449 1.41668 3 
5.73513 5.7574 2.85417 3 
10.0379 4.32642 1.41051 3 
10.0421 7.19578 1.41464 3 
8.59999 5.76438 2.84628 3 
11.4753 5.7653 2.84439 3 
15.7912 4.32362 1.41407 3 
12.9145 4.32584 1.41167 3 
12.917 7.19491 1.41512 3 
15.7917 7.19345 1.41666 3 
14.3538 5.76292 2.84643 3 
18.6652 4.32113 1.41665 3 
18.665 7.19185 1.41866 3 
17.2299 5.76019 2.84951 3 
20.1019 5.75678 2.85358 3 
21.5355 4.31832 1.42017 3 
21.536 7.18994 1.42106 3 
22.97 5.75299 2.85799 3 
24.4055 7.18827 1.42325 3 
24.4059 4.31758 1.42223 3 
28.7106 5.7528 2.85909 3 
27.2761 4.31729 1.423 3 
27.2757 7.18822 1.42373 3 
25.8406 5.75263 2.85894 3 
1.43375 10.0596 1.42409 3 
2.86818 8.62496 2.85892 3 
2.86913 11.4953 2.85988 3 
4.30339 10.0609 1.42273 3 
7.17345 10.0622 1.42075 3 
5.73729 8.62707 2.85698 3 
5.7395 11.4961 2.85883 3 
10.0454 10.0624 1.41982 3 
8.60702 8.62911 2.85404 3 
11.4803 8.6289 2.85317 3 
8.61047 11.4964 2.85765 3 
11.4825 11.4961 2.85723 3 
12.9183 10.0619 1.41995 3 
15.7912 10.0612 1.42073 3 
14.3544 8.62778 2.85389 3 
14.3548 11.4956 2.85745 3 
18.6636 10.0604 1.42185 3 
17.2279 8.62668 2.85532 3 
20.0998 8.62548 2.85717 3 
17.227 11.4952 2.85815 3 
20.0986 11.4948 2.85905 3 
21.535 10.0597 1.42306 3 
22.9702 8.62405 2.85897 3 
22.9697 11.4944 2.85991 3 
24.4055 10.059 1.42415 3 
28.7108 11.4945 2.8605 3 
28.7105 8.62375 2.85986 3 
27.2758 10.0588 1.42455 3 
25.8403 8.6234 2.85982 3 
25.8404 11.4942 2.86045 3 
1.43448 12.9299 1.42488 3 
1.43514 15.8002 1.42508 3 
2.87004 14.3655 2.86042 3 
4.30571 15.8005 1.42449 3 
4.30484 12.9305 1.42403 3 
7.17554 12.9308 1.42299 3 
7.17638 15.8005 1.42364 3 
5.74082 14.3657 2.85972 3 
10.0469 12.9307 1.42238 3 
10.0472 15.8002 1.42286 3 
8.61177 14.3656 2.85894 3 
11.4831 14.3653 2.85847 3 
12.9188 12.9303 1.42236 3 
15.7909 12.93 1.42273 3 
12.9187 15.7999 1.42261 3 
15.7906 15.7998 1.42284 3 
14.3549 14.3651 2.85847 3 
18.6628 12.9297 1.4234 3 
18.6624 15.7997 1.42333 3 
17.2266 14.365 2.85887 3 
20.0983 14.3648 2.85942 3 
21.5344 12.9294 1.42411 3 
21.5343 15.7995 1.42391 3 
22.9697 14.3647 2.86007 3 
24.4058 15.7995 1.42452 3 
24.4055 12.9292 1.42476 3 
28.7113 14.3651 2.86086 3 
27.2761 12.9294 1.42511 3 
27.2766 15.7998 1.42506 3 
25.8406 14.3648 2.86064 3 
1.43528 18.6708 1.42478 3 
2.87039 17.2358 2.86041 3 
2.87012 20.1066 2.85995 3 
4.30561 18.6708 1.42419 3 
7.17628 18.6709 1.42324 3 
5.74122 17.2359 2.85975 3 
5.74046 20.1062 2.85897 3 
10.0469 18.6706 1.42212 3 
8.61193 17.2357 2.85882 3 
11.4826 17.2351 2.85776 3 
8.61151 20.1065 2.8579 3 
11.4817 20.1059 2.85617 3 
12.9182 18.6703 1.42159 3 
15.7902 18.6704 1.42187 3 
14.3543 17.235 2.8575 3 
14.353 20.1056 2.85563 3 
18.6623 18.6704 1.42241 3 
17.2263 17.235 2.85779 3 
20.0983 17.2349 2.85827 3 
17.2255 20.1058 2.85618 3 
20.0982 20.1058 2.85672 3 
21.5344 18.6702 1.42299 3 
24.4061 18.6701 1.42365 3 
22.9702 17.2348 2.85895 3 
22.9707 20.1055 2.85734 3 
28.7117 17.2356 2.86062 3 
28.7118 20.1065 2.86008 3 
27.2769 18.6705 1.42451 3 
25.8412 17.2351 2.85996 3 
25.8416 20.106 2.85892 3 
1.43502 21.5419 1.4242 3 
2.86959 22.9777 2.85919 3 
1.43463 24.4135 1.42362 3 
4.30386 24.4129 1.42203 3 
4.30477 21.5414 1.42317 3 
7.17447 21.5405 1.42113 3 
5.73891 22.9767 2.85727 3 
7.17241 24.4116 1.41879 3 
10.0461 21.5411 1.42009 3 
8.60759 22.9746 2.85359 3 
11.4806 22.9766 2.85288 3 
10.0432 24.4114 1.41668 3 
12.9177 21.5414 1.4197 3 
15.7898 21.5419 1.42054 3 
14.3523 22.9774 2.85299 3 
15.7889 24.4148 1.4192 3 
12.9164 24.4135 1.4173 3 
18.6619 21.5422 1.42161 3 
17.2247 22.9784 2.8548 3 
20.098 22.9783 2.8558 3 
18.6615 24.4149 1.42091 3 
21.5343 21.542 1.42221 3 
24.4061 21.5419 1.42297 3 
22.9706 22.978 2.85675 3 
24.4061 24.414 1.42251 3 
21.5342 24.4143 1.4217 3 
28.7116 22.9779 2.85954 3 
27.2769 21.542 1.42393 3 
25.8415 22.9779 2.85834 3 
27.2767 24.4138 1.42348 3 
1.43422 27.2855 1.423 3 
2.86907 25.8494 2.85843 3 
4.30307 27.2852 1.42103 3 
7.17074 27.2848 1.41688 3 
5.73759 25.8487 2.85557 3 
10.0406 27.2853 1.41415 3 
8.60409 25.8466 2.84964 3 
11.4752 25.8472 2.8471 3 
12.9135 27.2877 1.41518 3 
15.7872 27.2892 1.41745 3 
14.3497 25.852 2.84955 3 
18.6617 27.2875 1.41925 3 
17.2235 25.853 2.85285 3 
20.098 25.8516 2.85488 3 
21.5347 27.2865 1.42069 3 
22.9706 25.8507 2.85632 3 
24.4061 27.2861 1.42205 3 
28.7113 25.8496 2.85908 3 
27.2766 27.2857 1.42305 3 
25.8414 25.8499 2.85796 3 
1.43374 1.44533 4.29418 3 
1.43394 1.44461 7.16575 3 
2.86868 2.8815 5.72936 3 
2.86917 0.00955824 5.72936 3 
4.30294 1.44645 4.29203 3 
7.16887 1.44924 4.28599 3 
4.30455 1.44602 7.16403 3 
7.17286 1.44989 7.15948 3 
5.73711 2.88449 5.72619 3 
5.73846 0.0108332 5.72633 3 
10.0266 1.45533 4.27039 3 
10.0307 1.46422 7.14299 3 
8.59904 2.89373 5.71664 3 
11.4359 2.92856 5.67845 3 
8.60269 0.0132027 5.71784 3 
11.4493 0.0149209 5.68913 3 
12.8952 1.46914 4.26466 3 
15.7897 1.46105 4.27454 3 
12.8106 1.55376 7.04612 3 
15.8171 1.49994 7.10948 3 
14.3495 2.91507 5.68911 3 
14.3225 0.0418595 5.67396 3 
14.1837 0.180705 8.19599 5 
18.6633 1.4499 4.28406 3 
18.6468 1.43747 7.16802 3 
17.24 2.90221 5.70545 3 
20.0944 2.88014 5.72838 3 
20.0993 0.0176103 5.72096 3 
17.2226 0.0191394 5.71166 3 
21.535 1.44897 4.28954 3 
24.4066 1.44705 4.29207 3 
21.5347 1.44795 7.16113 3 
22.9699 2.88216 5.728 3 
24.4056 1.44587 7.16481 3 
22.9728 0.0134482 5.72472 3 
27.2759 1.44537 4.29428 3 
28.7106 2.8806 5.73042 3 
27.2751 1.44424 7.16629 3 
25.8406 2.88115 5.72987 3 
25.8406 0.00953538 5.72952 3 
28.7106 0.00900936 5.73039 3 
1.43345 4.31713 4.29438 3 
1.4334 7.18851 4.29497 3 
1.43382 4.31622 7.16596 3 
1.43374 7.18772 7.16634 3 
2.86841 5.75311 5.73004 3 
4.30224 4.31919 4.29226 3 
4.30262 7.19033 4.29371 3 
7.16753 4.32484 4.28633 3 
7.17076 7.19361 4.29113 3 
4.30382 4.31766 7.16503 3 
4.30373 7.18906 7.16593 3 
7.17223 4.3209 7.16361 3 
5.73716 5.75573 5.72855 3 
7.17311 7.19134 7.16521 3 
10.0248 4.33968 4.26988 3 
10.0397 7.19685 4.28618 3 
10.0375 4.32712 7.16261 3 
8.60391 5.76061 5.72565 3 
10.0437 7.19227 7.16357 3 
11.4708 5.76549 5.71654 3 
12.9091 4.33783 4.27028 3 
15.7939 4.33241 4.27597 3 
12.9153 7.19549 4.28578 3 
15.7912 7.19355 4.28767 3 
12.9003 4.33377 7.14293 3 
15.7895 4.3275 7.1507 3 
12.9147 7.19163 7.15934 3 
14.3513 5.76174 5.71771 3 
15.7893 7.18974 7.16091 3 
18.6693 4.32608 4.28316 3 
18.6646 7.19175 4.29042 3 
18.6642 4.32148 7.16065 3 
17.2288 5.75891 5.72229 3 
18.6622 7.18889 7.16406 3 
20.0996 5.7549 5.7275 3 
21.5336 4.31732 4.2927 3 
21.5349 7.18931 4.29348 3 
24.4049 7.18783 4.29486 3 
24.4053 4.31721 4.29372 3 
24.4042 4.31581 7.16586 3 
21.5327 4.31598 7.16392 3 
21.5337 7.18786 7.16545 3 
22.9691 5.75209 5.7296 3 
24.4041 7.18683 7.16633 3 
27.2757 4.31682 4.29465 3 
27.2753 7.18778 4.29535 3 
28.7105 5.75209 5.73072 3 
27.2752 4.31588 7.16626 3 
25.8399 5.75179 5.73064 3 
27.275 7.18707 7.16656 3 
1.43369 10.0594 4.29561 3 
1.43399 10.0589 7.16665 3 
2.86865 8.6243 5.73072 3 
2.86945 11.495 5.73119 3 
7.17414 10.0616 4.2936 3 
4.30379 10.0606 4.29485 3 
4.30455 10.0598 7.1664 3 
5.73842 8.62592 5.72992 3 
7.17542 10.0605 7.16589 3 
5.74022 11.4956 5.73068 3 
10.0453 10.062 4.29204 3 
8.60876 8.62716 5.72843 3 
10.0469 10.0604 7.16494 3 
11.4801 8.62727 5.726 3 
8.61143 11.4957 5.72994 3 
11.4831 11.4955 5.72918 3 
15.7909 10.0606 4.29245 3 
12.9181 10.0613 4.29177 3 
12.9186 10.0598 7.16391 3 
14.3537 8.62591 5.72611 3 
15.7904 10.0591 7.16441 3 
14.355 11.4951 5.72921 3 
18.6629 10.06 4.29366 3 
20.0984 8.62426 5.72963 3 
17.2268 8.62501 5.72777 3 
18.6619 10.0588 7.16562 3 
17.2266 11.4947 5.72985 3 
20.0978 11.4945 5.73069 3 
21.5341 10.0594 4.2949 3 
24.4048 10.0589 4.29563 3 
21.5333 10.0586 7.16636 3 
22.9693 8.62339 5.73065 3 
22.969 11.4943 5.73128 3 
24.4042 10.0583 7.16675 3 
28.7107 11.4943 5.73148 3 
27.2753 10.0588 4.29591 3 
28.7104 8.62329 5.73116 3 
25.8398 8.62289 5.73119 3 
27.2751 10.0583 7.16683 3 
25.8399 11.4941 5.73156 3 
1.43431 12.9301 4.29605 3 
1.43476 15.8008 4.29624 3 
1.43464 12.9298 7.16675 3 
1.43509 15.8008 7.16685 3 
2.87024 14.3656 5.73142 3 
4.30585 15.8009 4.29582 3 
4.30511 12.9306 4.29555 3 
7.17606 12.9308 4.29486 3 
7.17684 15.8009 4.29521 3 
4.30636 15.8011 7.16671 3 
4.30569 12.9303 7.16661 3 
7.17689 12.9304 7.16628 3 
5.74136 14.3658 5.73107 3 
7.17758 15.8011 7.16643 3 
10.0474 12.9306 4.29418 3 
10.0477 15.8005 4.29448 3 
10.0484 12.9303 7.16586 3 
8.61252 14.3656 5.73061 3 
10.0487 15.8009 7.16616 3 
11.4839 14.3656 5.73024 3 
12.9192 12.9304 4.29398 3 
15.7909 12.9302 4.29425 3 
12.919 15.8003 4.29406 3 
15.7907 15.8004 4.29412 3 
12.9199 12.9302 7.16568 3 
15.7911 12.9301 7.1659 3 
12.9202 15.8011 7.16617 3 
14.3554 14.3656 5.73023 3 
15.7915 15.8014 7.16628 3 
18.6624 12.93 4.29484 3 
18.6623 15.8003 4.29448 3 
18.6621 12.9299 7.16636 3 
17.2266 14.3655 5.73047 3 
18.6625 15.8013 7.16633 3 
20.0979 14.3653 5.7309 3 
21.5337 12.9298 4.2955 3 
21.534 15.8002 4.29505 3 
24.4051 15.8002 4.29585 3 
24.4048 12.9296 4.29605 3 
21.5331 12.9297 7.16677 3 
21.5335 15.8009 7.16678 3 
22.969 14.3651 5.73143 3 
24.4042 12.9295 7.16703 3 
24.4041 15.8009 7.16748 3 
28.7111 14.3653 5.73167 3 
27.2755 12.9297 4.29629 3 
27.2757 15.8006 4.29649 3 
27.2755 12.9294 7.16691 3 
25.8399 14.3652 5.73188 3 
27.2758 15.8006 7.16697 3 
1.43492 18.6714 4.296 3 
1.43508 18.6719 7.16694 3 
2.87051 17.2363 5.73149 3 
2.87032 20.1072 5.73121 3 
4.30574 18.6714 4.29557 3 
7.17676 18.6715 4.29476 3 
4.30635 18.6719 7.16663 3 
5.74175 17.2364 5.73108 3 
7.17778 18.6722 7.16621 3 
5.74119 20.107 5.73057 3 
10.0473 18.6711 4.29359 3 
8.61279 17.2363 5.73049 3 
10.0487 18.6721 7.16572 3 
11.4833 17.2356 5.72969 3 
8.61246 20.1072 5.72951 3 
11.4823 20.1065 5.72786 3 
15.7895 18.6698 4.2917 3 
12.9173 18.6698 4.29187 3 
12.9185 18.6706 7.16468 3 
14.3547 17.2356 5.72934 3 
15.7907 18.671 7.16444 3 
14.3508 20.1036 5.72458 3 
18.6622 18.6699 4.29201 3 
17.2266 17.2359 5.7294 3 
18.6637 18.6713 7.16407 3 
20.0986 17.2357 5.72973 3 
17.225 20.1039 5.72443 3 
20.1001 20.1036 5.72447 3 
21.5349 18.6696 4.29256 3 
24.4061 18.6702 4.29425 3 
21.5353 18.6713 7.16564 3 
22.9698 17.2357 5.73085 3 
22.9719 20.1044 5.72731 3 
24.4032 18.6731 7.16885 3 
28.7113 20.1071 5.73139 3 
27.2761 18.6711 4.29579 3 
28.7113 17.2363 5.7318 3 
25.8398 17.2365 5.73222 3 
27.2755 18.6721 7.16743 3 
25.8406 20.1063 5.7308 3 
1.43469 21.5425 4.29556 3 
1.43437 24.4138 4.29499 3 
1.43486 21.543 7.16671 3 
2.86998 22.9784 5.73075 3 
1.43449 24.4142 7.16636 3 
4.30436 24.4135 4.29385 3 
4.3051 21.5422 4.29491 3 
7.17519 21.5415 4.29345 3 
7.17262 24.4119 4.29055 3 
4.30567 24.4145 7.16564 3 
4.30594 21.543 7.16631 3 
7.17668 21.5426 7.16543 3 
5.74023 22.9779 5.72968 3 
7.17558 24.4142 7.16412 3 
10.0471 21.5429 4.29258 3 
10.0383 24.4072 4.28319 3 
10.0485 21.5436 7.16384 3 
8.60956 22.9768 5.72751 3 
11.4842 22.982 5.7283 3 
10.0429 24.4122 7.16066 3 
12.9154 21.5414 4.28937 3 
15.7872 21.5409 4.28894 3 
12.9144 24.4132 4.28402 3 
12.9164 21.5416 7.16105 3 
15.7824 21.5341 7.15405 3 
14.3467 22.9771 5.72087 3 
15.7701 24.4122 7.15031 3 
12.9269 24.4296 7.16801 3 
15.7855 24.4153 4.28555 3 
18.6611 21.5414 4.28955 3 
18.6604 24.4159 4.28776 3 
18.6644 21.5356 7.1516 3 
17.22 22.977 5.72019 3 
20.1009 22.9753 5.71949 3 
18.6623 24.4139 7.13561 3 
24.4067 21.5412 4.29256 3 
21.5357 21.5405 4.28982 3 
24.4065 24.4139 4.29211 3 
21.5349 24.4151 4.2896 3 
21.5399 21.5363 7.15705 3 
22.9727 22.9761 5.7245 3 
24.405 24.4124 7.16413 3 
24.4051 21.5408 7.16561 3 
21.5407 24.4117 7.15165 3 
28.7111 22.9782 5.73096 3 
27.2762 21.5422 4.29505 3 
27.276 24.4138 4.2946 3 
27.2756 21.5425 7.16676 3 
25.8407 22.9775 5.72978 3 
27.2751 24.4136 7.16636 3 
1.43403 27.2855 4.29445 3 
1.43419 27.2853 7.16593 3 
2.8696 25.8498 5.72999 3 
4.3037 27.2856 4.29271 3 
7.17078 27.2853 4.28788 3 
4.3053 27.2861 7.16449 3 
5.73935 25.8497 5.72794 3 
7.17469 27.2872 7.16104 3 
10.0319 27.2826 4.27607 3 
8.60547 25.8476 5.72239 3 
10.0369 27.287 7.15078 3 
11.4621 25.8364 5.7055 3 
12.9033 27.2867 4.27452 3 
15.7812 27.2952 4.2783 3 
12.8644 27.2593 7.10953 3 
14.3452 25.8538 5.71163 3 
15.7523 27.324 7.11077 3 
18.6612 27.2908 4.28561 3 
17.2175 25.8588 5.71267 3 
18.6641 27.3062 7.15036 3 
20.0993 25.8563 5.72026 3 
21.5355 27.2891 4.28906 3 
24.4066 27.2867 4.2919 3 
21.5423 27.2938 7.15412 3 
22.9724 25.8511 5.72453 3 
24.4053 27.2854 7.16453 3 
28.7108 25.8496 5.73057 3 
27.2759 27.2856 4.29431 3 
25.8404 25.8495 5.72952 3 
27.2748 27.2848 7.16636 3 
2.8696 2.88042 8.601 3 
2.87006 0.00910665 8.60082 3 
1.43448 1.44389 10.0369 3 
2.87039 2.87975 11.472 3 
2.87077 0.00863252 11.4722 3 
5.73996 2.88199 8.59982 3 
4.30595 1.44483 10.036 3 
7.17712 1.44608 10.0344 3 
5.74149 2.88047 11.4715 3 
5.74128 0.0108815 8.59862 3 
5.74257 0.0099526 11.4716 3 
8.60907 2.88464 8.5989 3 
11.4771 2.88742 8.60659 3 
11.4686 0.0350699 8.5589 3 
8.61043 0.0156608 8.59204 3 
11.4797 0.0253414 11.4861 3 
10.052 1.44476 10.031 3 
8.61318 2.88052 11.4694 3 
11.4913 2.87328 11.4567 3 
8.61366 0.0130538 11.472 3 
14.3294 2.89588 8.55886 3 
14.2809 0.0835388 11.7242 5 
12.9805 1.38406 10.0181 5 
15.7639 1.52672 10.0158 5 
14.3392 2.8848 11.4861 3 
17.2288 2.89031 8.59028 3 
20.0954 2.87886 8.59714 3 
20.0998 0.00693495 11.4828 3 
18.6552 1.43799 10.025 3 
17.2299 2.89226 11.4721 3 
20.0941 2.87582 11.47 3 
20.1029 0.0162724 8.59157 3 
17.1961 0.063651 11.4533 5 
22.9681 2.87953 8.60126 3 
22.9719 0.0110974 8.59946 3 
21.5322 1.44236 10.0378 3 
22.9678 2.87825 11.4732 3 
24.4046 1.44389 10.0379 3 
22.9718 0.00832403 11.4756 3 
28.7106 2.87971 8.60169 3 
25.8398 2.87985 8.60187 3 
25.8392 0.00762122 8.60244 3 
28.7112 2.87939 11.4724 3 
27.2751 1.44339 10.0375 3 
25.8402 2.87947 11.4728 3 
28.711 0.00765007 11.4729 3 
28.7104 0.00805954 8.60195 3 
25.8399 0.00695217 11.4739 3 
2.86925 5.75202 8.6015 3 
1.43437 4.31546 10.0369 3 
1.43429 7.18699 10.0371 3 
2.87006 5.7513 11.4723 3 
5.73914 5.7537 8.60118 3 
4.30514 4.31625 10.0365 3 
4.30484 7.18792 10.0371 3 
7.17525 4.31772 10.0362 3 
7.17514 7.18933 10.0371 3 
5.74064 5.7522 11.4722 3 
8.60812 5.75645 8.60092 3 
11.48 5.75549 8.59887 3 
10.0444 4.32018 10.0363 3 
10.0469 7.18923 10.0362 3 
8.61108 5.75345 11.472 3 
11.4841 5.75135 11.4695 3 
14.3489 5.75409 8.59198 3 
12.9198 4.31253 10.0309 3 
15.78 4.31823 10.0292 3 
12.9186 7.1874 10.0345 3 
15.7878 7.18594 10.0342 3 
14.3515 5.75087 11.472 3 
17.2242 5.75298 8.59764 3 
20.0981 5.75232 8.59988 3 
18.6621 4.31727 10.0331 3 
18.661 7.18645 10.0356 3 
17.2242 5.75045 11.4699 3 
20.0975 5.75056 11.4713 3 
22.968 5.75047 8.60136 3 
21.5315 4.31346 10.0361 3 
21.533 7.18643 10.0367 3 
22.9678 5.74955 11.4724 3 
24.4036 4.31459 10.0373 3 
24.4037 7.18593 10.0372 3 
28.7106 5.75134 8.60177 3 
28.7111 5.7509 11.4724 3 
25.8394 5.75086 8.60187 3 
27.2754 4.31525 10.0372 3 
27.2751 7.18641 10.0373 3 
25.8396 5.75033 11.4726 3 
2.86935 8.62346 8.60188 3 
2.87003 11.4944 8.60199 3 
1.43453 10.0582 10.0373 3 
2.87007 8.62275 11.4725 3 
2.8707 11.4938 11.4725 3 
5.73975 8.62464 8.60172 3 
5.7411 11.4949 8.60182 3 
4.30543 10.059 10.0373 3 
7.17661 10.0595 10.0371 3 
5.74089 8.62357 11.4726 3 
5.74184 11.4943 11.4725 3 
8.61086 8.62523 8.60118 3 
11.4826 8.62445 8.59982 3 
8.61256 11.4949 8.60146 3 
11.4842 11.4946 8.60097 3 
11.4842 8.62288 11.4717 3 
10.0484 10.0591 10.0366 3 
8.61236 8.62374 11.4722 3 
8.6133 11.4942 11.4723 3 
11.4848 11.4939 11.4722 3 
14.3537 8.62319 8.59858 3 
14.3554 11.4943 8.60087 3 
12.9198 10.0584 10.0361 3 
15.7903 10.0577 10.0362 3 
14.3547 8.62189 11.4717 3 
14.3559 11.4936 11.4724 3 
17.2253 8.62256 8.60009 3 
20.0974 8.62271 8.60124 3 
17.2263 11.494 8.6014 3 
20.0974 11.4939 8.60196 3 
18.6615 10.0577 10.0368 3 
17.2255 8.6213 11.4715 3 
20.0972 8.62168 11.4722 3 
17.2267 11.4934 11.4727 3 
20.0976 11.4932 11.473 3 
22.9687 8.62241 8.60182 3 
22.9685 11.4937 8.60223 3 
21.5329 10.0578 10.0373 3 
22.9686 8.6217 11.4726 3 
22.9689 11.493 11.4729 3 
24.4042 10.0576 10.0374 3 
28.7106 8.62259 8.602 3 
28.711 8.62204 11.4725 3 
28.711 11.4938 8.60205 3 
25.8395 8.62218 8.60207 3 
25.8398 11.4935 8.60216 3 
28.7116 11.4931 11.4725 3 
27.2754 10.0577 10.0373 3 
25.8397 8.6216 11.4726 3 
25.8403 11.4929 11.4726 3 
2.8708 14.3653 8.60199 3 
1.43521 12.9292 10.0372 3 
1.43581 15.8003 10.0371 3 
2.87146 14.3647 11.4724 3 
0.000493025 14.364 11.4723 3 
5.74205 14.3656 8.60193 3 
4.30635 12.9298 10.0372 3 
4.30698 15.8008 10.0372 3 
7.17763 12.9299 10.0371 3 
7.17826 15.8011 10.0372 3 
5.74259 14.3652 11.4725 3 
8.61329 14.3655 8.60171 3 
11.4848 14.3655 8.60165 3 
10.0491 12.9298 10.0369 3 
10.0493 15.8009 10.0371 3 
8.61374 14.3651 11.4724 3 
11.4851 14.365 11.4725 3 
14.3563 14.3659 8.60198 3 
12.9206 12.9298 10.037 3 
15.7916 12.9298 10.0374 3 
12.921 15.8011 10.0376 3 
15.793 15.8019 10.0385 3 
14.3567 14.3653 11.4731 3 
17.2271 14.3658 8.60221 3 
20.0977 14.3654 8.60234 3 
18.6623 12.9295 10.0377 3 
18.6633 15.8015 10.0386 3 
17.2279 14.3654 11.474 3 
20.0983 14.3647 11.4741 3 
22.9686 14.365 8.60253 3 
21.5331 12.9291 10.0378 3 
21.5333 15.8006 10.0385 3 
22.9695 14.3639 11.4732 3 
24.405 15.7997 10.0374 3 
24.4045 12.9288 10.0375 3 
28.7116 14.3648 8.60195 3 
25.8402 14.3646 8.60212 3 
27.276 12.9288 10.0372 3 
27.2768 15.7996 10.0369 3 
25.8412 14.3635 11.4724 3 
2.8711 17.2364 8.60205 3 
2.87093 20.1076 8.6021 3 
1.43583 18.6717 10.0374 3 
2.87177 17.2359 11.4725 3 
2.87161 20.1073 11.4727 3 
0.000718249 20.1067 11.4731 3 
0.00106469 17.2351 11.4724 3 
5.74251 17.2367 8.60195 3 
5.74217 20.1076 8.60173 3 
4.30702 18.672 10.0373 3 
7.17865 18.6725 10.0371 3 
5.74303 17.2365 11.4725 3 
5.74288 20.1076 11.4725 3 
8.61376 17.2368 8.60176 3 
11.4846 17.2364 8.60176 3 
8.61407 20.1083 8.60127 3 
11.4849 20.1082 8.60118 3 
10.0499 18.6727 10.0372 3 
8.61421 17.2367 11.4726 3 
11.4849 17.2361 11.4729 3 
8.61493 20.1085 11.4723 3 
11.4861 20.1085 11.4732 3 
14.3567 17.2371 8.6024 3 
14.3531 20.1044 8.59943 3 
12.9204 18.6716 10.0379 3 
15.7947 18.673 10.0397 3 
14.3573 17.2364 11.474 3 
14.3559 20.1045 11.4757 3 
17.2282 17.2376 8.6024 3 
20.0986 17.237 8.60239 3 
17.2295 20.106 8.59884 3 
20.1022 20.107 8.59954 3 
18.6658 18.6736 10.0391 3 
17.2305 17.2373 11.4764 3 
20.0992 17.2362 11.476 3 
17.2385 20.1051 11.4826 3 
20.0968 20.1127 11.4801 3 
22.9681 17.2369 8.6036 3 
22.9645 20.1118 8.60824 3 
21.5319 18.6737 10.041 3 
22.9707 17.2342 11.4732 3 
22.9728 20.1035 11.4715 3 
24.4057 18.6707 10.0371 3 
28.7119 17.2361 8.60204 3 
28.7116 20.1075 8.60244 3 
25.8405 17.2359 8.60214 3 
25.8395 20.1081 8.60361 3 
27.2768 18.6712 10.0373 3 
25.8426 17.2338 11.472 3 
25.8423 20.1056 11.4731 3 
2.87065 22.9789 8.60184 3 
1.43496 24.4141 10.0375 3 
1.43545 21.5431 10.0377 3 
2.87136 22.9787 11.4728 3 
5.74181 22.9789 8.6012 3 
4.30684 24.4149 10.0367 3 
4.30679 21.5433 10.0372 3 
7.17804 24.4154 10.0355 3 
7.1781 21.5433 10.0367 3 
5.74282 22.9791 11.472 3 
8.61214 22.9783 8.59988 3 
11.4855 22.981 8.59715 3 
10.0472 24.4143 10.0332 3 
10.051 21.5449 10.0361 3 
8.61388 22.9789 11.4713 3 
11.4886 22.9823 11.4701 3 
14.348 22.9735 8.59158 3 
15.8119 24.3196 10.0393 5 
12.9264 24.4211 10.0251 3 
14.3574 22.9765 11.4829 3 
15.79 21.53 10.0353 3 
12.9219 21.5441 10.0378 3 
17.217 22.9555 8.56743 3 
20.1134 22.9628 8.57425 3 
18.6737 21.5459 10.0294 3 
18.6543 24.422 9.84742 5 
17.2565 22.8962 11.5025 5 
20.0277 23.0486 11.498 5 
22.9693 22.9739 8.59953 3 
21.5303 24.4025 10.0294 3 
24.4027 21.5443 10.0409 3 
22.9636 22.9794 11.4801 3 
21.5187 21.5575 10.0546 3 
24.4028 24.4104 10.0391 3 
28.7111 22.9784 8.60226 3 
28.7119 22.9779 11.4739 3 
25.8395 22.9774 8.60237 3 
27.275 24.4129 10.0385 3 
25.8403 22.9769 11.4759 3 
27.2759 21.5429 10.0384 3 
2.87046 25.8501 8.60135 3 
2.87114 25.8498 11.4725 3 
1.43457 27.2848 10.0372 3 
5.74188 25.8512 8.60008 3 
7.17855 27.2888 10.0341 3 
4.30672 27.2862 10.0361 3 
5.74318 25.851 11.4713 3 
8.61151 25.8523 8.5977 3 
11.4741 25.8475 8.59035 3 
11.4722 25.8466 11.4721 3 
8.614 25.8523 11.4698 3 
10.0463 27.2965 10.0293 3 
14.3974 25.8981 8.63461 5 
12.8377 27.3125 10.0159 5 
14.3008 25.8802 11.4533 5 
15.176 27.9003 9.86519 5 
17.1782 28.679 8.6346 5 
17.1831 25.8932 8.48464 5 
20.1208 25.8592 8.56746 3 
17.8417 25.2346 11.8194 5 
18.7568 27.2644 10.0392 5 
20.1802 25.8197 11.5025 5 
16.5822 26.4942 10.6569 5 
22.9704 25.8466 8.5989 3 
21.5463 27.2862 10.0353 3 
22.9712 25.8376 11.4825 3 
24.4033 27.2815 10.0397 3 
28.7105 25.8492 8.60214 3 
25.8388 25.848 8.60242 3 
27.2744 27.2833 10.0385 3 
25.8391 25.8456 11.4763 3 
28.711 25.8484 11.4738 3 
1.43525 1.44386 12.9078 3 
2.87089 2.87993 14.3432 3 
0.000166364 2.87983 14.3434 3 
1.43599 1.4444 15.7791 3 
0.00044798 0.00821925 14.3442 3 
2.87127 0.0085468 14.3434 3 
4.3065 1.44452 12.9076 3 
7.17717 1.44625 12.9083 3 
4.30638 1.44456 15.7791 3 
7.17582 1.44542 15.7809 3 
5.74134 2.88096 14.3437 3 
5.74211 0.00911694 14.3436 3 
10.0432 1.45317 12.9145 3 
10.0423 1.4467 15.7871 3 
8.60941 2.88469 14.347 3 
11.4719 0.00905167 14.3603 3 
11.466 2.89853 14.3645 3 
8.6109 0.0100602 14.3465 3 
12.8732 1.49132 12.9631 3 
15.8089 1.47651 12.9387 3 
14.3554 2.89254 14.3603 3 
14.3636 0.000796435 14.3532 3 
12.9192 1.44527 15.7845 3 
15.7973 1.44278 15.7815 3 
18.6621 1.44172 12.9099 3 
20.0982 2.87758 14.3456 3 
18.6643 1.43864 15.7805 3 
17.2372 2.8888 14.3541 3 
21.5341 1.44301 12.9124 3 
24.4064 1.44451 12.9095 3 
21.5338 1.44119 15.7809 3 
24.409 1.44628 15.7823 3 
22.9698 2.87928 14.3456 3 
22.9764 0.011183 14.3494 3 
27.2763 1.44371 12.9084 3 
25.8417 2.88023 14.3442 3 
27.2781 1.44496 15.7801 3 
25.8429 0.00863128 14.3457 3 
1.43506 4.31531 12.9076 3 
1.43488 7.18663 12.9077 3 
1.43557 4.31571 15.7787 3 
1.43532 7.18663 15.7784 3 
2.87063 5.75118 14.343 3 
4.30596 4.3157 12.9074 3 
7.17694 4.31627 12.9068 3 
4.30571 7.18719 12.9077 3 
7.17649 7.18796 12.9077 3 
5.74136 5.75172 14.3429 3 
4.30595 4.31616 15.779 3 
4.30605 7.18711 15.7784 3 
7.17523 4.31808 15.7808 3 
7.17662 7.18777 15.7787 3 
10.0489 4.31563 12.9035 3 
10.0483 7.18749 12.9069 3 
8.61209 5.75232 14.3425 3 
10.0409 4.32347 15.7877 3 
10.0464 7.18907 15.7808 3 
11.4799 5.75501 14.347 3 
12.9114 4.32133 12.9146 3 
15.7899 4.31943 12.9111 3 
12.9184 7.18723 12.9085 3 
15.7902 7.18616 12.9076 3 
15.7944 4.3201 15.7852 3 
12.9178 4.3221 15.7872 3 
12.9192 7.18844 15.7811 3 
15.792 7.1877 15.7805 3 
14.3546 5.75349 14.3466 3 
18.665 4.31768 12.9089 3 
18.6619 7.18597 12.9071 3 
20.0992 5.75134 14.3443 3 
18.667 4.31826 15.7839 3 
18.6637 7.18722 15.7802 3 
17.2282 5.75255 14.3451 3 
24.4041 4.31445 12.9083 3 
21.532 4.3131 12.9077 3 
21.5332 7.18585 12.9077 3 
24.404 7.18558 12.9079 3 
21.5341 4.31445 15.7805 3 
21.5344 7.18646 15.7797 3 
24.4048 7.18588 15.779 3 
24.4055 4.31536 15.78 3 
22.9687 5.74977 14.3436 3 
28.7117 5.75094 14.3431 3 
27.276 4.31521 12.9079 3 
27.2755 7.18612 12.9078 3 
25.8402 5.75046 14.3435 3 
27.2769 4.31582 15.7791 3 
27.2762 7.18625 15.7787 3 
1.43511 10.0577 12.9077 3 
2.87123 11.4932 14.343 3 
0.000274549 11.4925 14.3431 3 
1.43562 10.0573 15.7784 3 
2.87066 8.62235 14.343 3 
4.30612 10.0583 12.9078 3 
7.17733 10.0586 12.9077 3 
5.74151 8.62291 14.3431 3 
4.30643 10.058 15.7784 3 
7.17735 10.0583 15.7785 3 
5.7422 11.4937 14.343 3 
10.0489 10.0583 12.9076 3 
8.61275 8.62299 14.343 3 
11.4836 8.62293 14.3439 3 
10.0483 10.0583 15.7791 3 
11.4846 11.4934 14.3434 3 
8.61336 11.4936 14.3431 3 
12.92 10.0579 12.9079 3 
15.7911 10.0574 12.9079 3 
14.3559 11.4931 14.3437 3 
12.9199 10.0579 15.7794 3 
15.7916 10.0576 15.7795 3 
14.3555 8.62225 14.3439 3 
18.662 10.0572 12.908 3 
17.227 8.62182 14.3436 3 
20.0985 11.4927 14.3443 3 
20.0981 8.62167 14.3435 3 
18.663 10.0573 15.7796 3 
17.2272 11.4929 14.3441 3 
21.5334 10.0572 12.9082 3 
24.4046 10.0571 12.908 3 
22.9692 8.62148 14.3435 3 
21.5343 10.0571 15.7795 3 
24.4054 10.0568 15.7791 3 
22.9698 11.4924 14.344 3 
27.2759 10.0571 12.9078 3 
28.7116 8.62181 14.3431 3 
25.8411 11.4922 14.3434 3 
27.2766 10.0568 15.7787 3 
25.8402 8.6214 14.3433 3 
1.43593 12.9285 12.9077 3 
1.4367 15.7995 12.9077 3 
2.87205 14.3641 14.3431 3 
1.43657 12.9279 15.7786 3 
1.43758 15.7984 15.779 3 
0.00152925 14.363 14.3432 3 
4.30691 12.9292 12.9077 3 
4.30748 15.8004 12.9077 3 
7.17802 12.9294 12.9077 3 
7.1785 15.8007 12.9078 3 
5.7428 14.3647 14.3431 3 
4.30769 15.7997 15.7787 3 
4.30714 12.9287 15.7785 3 
7.17787 12.9289 15.7786 3 
7.17822 15.8001 15.7788 3 
10.0492 12.9292 12.9077 3 
10.0492 15.8003 12.908 3 
11.4846 14.3642 14.3436 3 
10.0487 12.9287 15.7789 3 
10.0485 15.7994 15.7793 3 
8.61359 14.3646 14.3432 3 
12.9206 12.9291 12.9081 3 
15.7919 12.9291 12.9087 3 
12.9206 15.8 12.9085 3 
15.7928 15.8003 12.91 3 
12.92 12.9284 15.7794 3 
15.7915 12.9281 15.7802 3 
12.9193 15.7983 15.7804 3 
15.7911 15.7975 15.7824 3 
14.3561 14.364 14.3444 3 
18.6629 12.9288 12.9093 3 
18.6647 15.7999 12.9119 3 
18.6633 12.9278 15.7809 3 
18.6646 15.7966 15.7844 3 
17.2278 14.3638 14.3458 3 
20.0999 14.3631 14.3463 3 
21.534 12.9283 12.909 3 
21.5356 15.7986 12.9102 3 
24.4073 15.7976 12.9083 3 
24.4055 12.9279 12.9082 3 
21.5353 12.9272 15.7808 3 
21.5388 15.795 15.7846 3 
24.4069 12.9268 15.7799 3 
24.4101 15.795 15.7817 3 
22.9715 14.3623 14.345 3 
27.2769 12.9279 12.9077 3 
27.2783 15.7982 12.9077 3 
25.8428 14.3621 14.3437 3 
27.2779 12.927 15.779 3 
27.2801 15.7965 15.7799 3 
1.4368 18.6708 12.9081 3 
0.00248732 17.2336 14.3437 3 
0.00235574 20.1049 14.3448 3 
1.43787 18.6695 15.7798 3 
2.87226 20.1065 14.3438 3 
2.87241 17.2351 14.3434 3 
4.30775 18.6708 15.7791 3 
4.3075 18.6716 12.9079 3 
7.1789 18.6722 12.9079 3 
5.74301 20.1071 14.3434 3 
7.1785 18.6714 15.7791 3 
5.74316 17.236 14.3433 3 
10.0499 18.6722 12.9083 3 
8.61456 20.1077 14.3436 3 
11.4841 17.2347 14.3444 3 
10.0489 18.6708 15.7801 3 
11.485 20.1065 14.3457 3 
8.61395 17.236 14.3435 3 
12.9198 18.67 12.9096 3 
15.7939 18.6693 12.9127 3 
12.918 18.6674 15.7825 3 
15.7887 18.6628 15.7883 3 
14.3531 20.1 14.3495 3 
14.3556 17.2335 14.3459 3 
17.2289 17.2327 14.3497 3 
20.1043 17.2308 14.3517 3 
18.6701 18.6687 12.9196 3 
17.2288 20.0935 14.3616 3 
18.6671 18.6595 15.7942 3 
20.1216 20.0856 14.3719 3 
21.5387 18.6673 12.9112 3 
24.4104 18.6661 12.9079 3 
22.9753 17.23 14.3465 3 
21.5499 18.6548 15.7963 3 
24.4165 18.66 15.7854 3 
22.9843 20.0922 14.3483 3 
25.8455 17.231 14.3443 3 
27.2789 18.6691 12.9082 3 
25.8466 20.1011 14.3465 3 
27.2816 18.6664 15.7816 3 
1.43577 24.4134 12.909 3 
1.43635 21.5422 12.9087 3 
2.87193 22.9779 14.344 3 
0.00152443 22.9764 14.3461 3 
1.43749 21.541 15.7807 3 
1.43683 24.413 15.7806 3 
4.30733 21.5429 12.908 3 
4.30733 24.4144 12.9077 3 
7.17859 21.5431 12.9076 3 
7.17844 24.4146 12.907 3 
5.74276 22.9783 14.3433 3 
4.30745 21.5421 15.7794 3 
7.17784 21.542 15.7796 3 
4.30711 24.4135 15.7794 3 
7.17709 24.4128 15.7801 3 
10.0467 24.4115 12.9089 3 
10.0512 21.5444 12.9078 3 
10.0498 21.5423 15.7805 3 
11.4867 22.9782 14.3456 3 
10.046 24.4095 15.7838 3 
8.61293 22.9772 14.3443 3 
12.9227 24.4143 12.9099 3 
15.825 24.4361 12.8761 5 
12.9213 21.5422 12.9125 3 
15.7888 21.5288 12.9206 3 
12.923 21.5426 15.781 3 
15.7767 21.5192 15.8049 3 
12.9256 24.4121 15.7805 3 
15.795 24.4066 15.7917 3 
14.3681 22.9829 14.3416 3 
18.8783 24.1979 13.3756 5 
18.6926 21.5232 12.9589 3 
20.2404 22.8358 14.493 3 
17.1998 22.9197 14.4038 3 
18.6679 21.5029 15.8271 3 
18.6914 24.3849 15.8447 3 
24.4077 24.4061 12.9196 3 
24.4092 21.5377 12.9111 3 
21.5531 24.3836 12.9589 3 
21.5453 21.531 12.9028 3 
21.5959 21.4805 15.8461 3 
24.4217 21.5264 15.7963 3 
24.4171 24.4091 15.7941 3 
21.5735 24.4084 15.827 3 
22.9908 22.9547 14.3719 3 
25.8457 22.9719 14.3515 3 
27.278 21.5406 12.9101 3 
27.2767 24.4115 12.9117 3 
27.2816 21.5375 15.7845 3 
27.28 24.4116 15.7842 3 
1.4354 27.2845 12.9084 3 
2.87158 25.8493 14.3438 3 
0.000744781 25.8485 14.3455 3 
1.43639 27.2848 15.7799 3 
7.17826 27.2864 12.9075 3 
4.30706 27.2854 12.9076 3 
5.74257 25.8496 14.3433 3 
4.3068 27.2849 15.7792 3 
7.17659 27.2846 15.7804 3 
10.045 27.2867 12.911 3 
8.6118 25.8484 14.345 3 
10.0442 27.2821 15.7851 3 
11.4756 25.8393 14.3541 3 
15.8394 27.2371 12.876 5 
12.888 27.2676 12.9387 3 
14.3698 25.8446 14.339 3 
12.9216 27.2791 15.7815 3 
15.7994 27.277 15.7795 3 
18.6402 27.2514 12.876 5 
17.2318 28.7066 14.339 3 
17.2552 25.8211 14.3828 3 
18.6697 27.2813 15.7917 3 
20.1566 25.8765 14.4037 3 
20.0934 28.7082 14.3416 3 
24.4071 27.2823 12.9126 3 
21.5475 27.2874 12.9206 3 
21.5571 27.2995 15.8048 3 
24.4137 27.2876 15.7881 3 
22.9829 25.8475 14.3615 3 
27.2761 27.2834 12.9098 3 
25.8438 25.8473 14.3495 3 
27.279 27.2851 15.7822 3 
1.43645 1.4451 18.6508 3 
2.87101 2.88034 17.2146 3 
2.87086 2.88081 20.086 3 
2.87136 0.00918291 20.0866 3 
0.00101929 2.88066 17.2149 3 
0.0013767 2.88145 20.0869 3 
2.87143 0.00880235 17.215 3 