ITEM: TIMESTEP
87000
ITEM: NUMBER OF ATOMS
2001
ITEM: BOX BOUNDS pp pp pp
0.0000000000000000e+00 2.8712000000000000e+01
0.0000000000000000e+00 2.8712000000000000e+01
0.0000000000000000e+00 2.8712000000000000e+01
ITEM: ATOMS x y z 
1.43637 1.36677 1.39996 
2.93151 2.80956 2.96757 
2.732 0.147603 2.91601 
0.0655364 2.84671 2.75798 
2.84838 3.00773 0.0647702 
4.17359 1.48077 1.56898 
6.95807 1.40911 1.54244 
5.80924 2.98576 2.97846 
5.71878 0.0912303 3.0983 
5.73582 0.149081 0.109064 
5.58858 2.78001 0.0218476 
10.0597 1.44074 1.45596 
8.58753 2.85025 2.98016 
11.5412 2.74522 2.65705 
8.58113 0.139583 2.93294 
11.4358 0.0382107 0.0400695 
8.59538 0.108239 0.120356 
11.613 2.78173 0.0823306 
13.1257 1.39331 1.38326 
16.0261 1.3337 1.32315 
14.4041 2.85355 2.80644 
14.6749 2.72301 0.0188336 
18.7692 1.48884 1.20837 
17.1655 2.75218 2.87321 
19.9992 2.85418 2.90491 
17.4431 0.102154 2.7307 
23.0848 2.81057 2.90715 
24.5932 1.38934 1.58697 
21.7263 1.20036 1.47744 
23.1386 2.84213 0.041968 
23.1801 0.0320667 0.129528 
28.5992 0.268 2.84175 
27.3837 1.56552 1.35656 
25.9359 3.04474 2.66491 
26.1246 3.10168 0.0474563 
25.809 0.0100702 2.90545 
25.8897 0.105038 0.00745163 
28.7093 0.218061 0.00688711 
1.29928 4.33414 1.38479 
1.59778 7.33948 1.52751 
2.72901 5.66825 2.88217 
0.0636316 5.73321 2.8234 
4.2073 4.36646 1.33522 
7.14386 4.23734 1.4821 
4.34319 7.33803 1.35962 
7.03106 7.38132 1.60214 
5.55452 5.79781 2.67198 
10.0838 4.15749 1.26254 
10.0223 7.18062 1.46999 
8.71469 5.71476 2.71172 
11.4545 5.55239 2.68063 
15.8934 4.30332 1.20234 
13.2361 4.27402 1.32831 
13.0403 7.00816 1.34342 
15.8391 7.30433 1.36781 
14.447 5.78095 2.85492 
18.5802 4.12598 1.42899 
18.8173 7.30436 1.36607 
17.1686 5.85243 2.90399 
20.0899 5.68039 2.92982 
21.502 4.26432 1.49451 
21.5666 7.27978 1.26117 
22.9297 5.76807 2.78825 
24.4055 7.22248 1.19192 
24.1863 4.50571 1.37496 
27.3591 4.49109 1.40526 
27.226 7.16473 1.61543 
25.5886 5.77868 2.74725 
1.40546 10.1972 1.47286 
2.89437 8.70839 2.94188 
2.87092 11.6103 2.86756 
0.028219 11.7353 3.06245 
2.9384 11.6848 0.0697568 
4.35022 10.0142 1.29369 
6.90342 10.0569 1.46047 
5.58535 8.60841 3.16493 
7.21949 10.1498 4.07081 
5.62623 11.5792 2.91065 
9.99844 10.0918 1.29588 
8.53241 8.66612 2.85779 
9.91648 10.199 4.08495 
11.4977 8.43325 2.86699 
8.63856 11.6393 2.53383 
11.4011 11.3462 2.76368 
12.8935 9.91625 1.30786 
15.6925 10.2171 1.34575 
14.2687 8.61074 2.91431 
15.7566 10.0796 4.03201 
14.3391 11.4806 2.87957 
18.8302 10.1187 1.33988 
17.3471 8.87092 2.77167 
20.1875 8.55788 2.73253 
17.3398 11.393 2.89119 
20.0582 11.5935 2.83198 
17.2027 8.73417 0.112144 
17.4127 11.4268 0.126281 
21.5661 10.1348 1.42676 
22.9924 8.65959 2.67742 
23.0629 11.4683 2.78445 
24.5057 10.261 1.2231 
28.582 8.51685 3.02859 
27.4483 10.1577 1.38716 
25.7748 8.70272 2.68933 
25.8663 11.6071 2.85841 
1.43559 13.023 1.50301 
1.29731 15.8159 1.51506 
2.83546 14.3099 2.80486 
4.29076 15.6495 1.38295 
4.2288 12.9644 1.52055 
7.11921 12.8092 1.53933 
7.22159 15.9332 1.22876 
5.72927 14.3304 2.69175 
10.04 13.1129 1.33398 
10.1193 15.7854 1.28106 
8.54109 14.4825 2.84057 
11.3918 14.1597 2.87041 
12.9524 12.8659 1.37987 
15.8334 12.8465 1.3655 
12.8931 15.8011 1.33478 
15.7655 15.8718 1.3352 
14.2731 14.1687 2.94351 
14.2384 14.3533 0.21188 
18.571 13.1498 1.23323 
18.6447 15.9052 1.40519 
16.985 14.4046 2.91094 
20.0382 14.432 2.83044 
21.7475 12.7878 1.43795 
21.3901 15.8628 1.42635 
22.8742 14.4823 2.78298 
24.409 15.6998 1.41265 
24.3956 13.1014 1.46917 
22.9693 14.4348 0.0464598 
28.7051 14.3152 3.25851 
27.3863 13.0452 1.49505 
27.4081 15.7786 1.40889 
25.8815 14.4349 2.80883 
26.0071 14.2305 0.0467824 
1.42901 18.7665 1.35098 
2.84099 17.3355 2.68304 
2.90517 19.9462 2.85815 
3.02695 20.2496 0.0435492 
4.37553 18.6235 1.48768 
7.3311 18.4596 1.33172 
5.71171 17.2203 2.79626 
5.68582 20.0786 2.96335 
5.81555 17.2221 0.0161523 
5.93088 19.9892 0.204137 
10.0921 18.7555 1.55108 
8.63932 17.2707 2.86828 
11.6351 17.3906 2.62878 
8.5086 20.1364 2.97272 
11.3999 20.2204 2.9933 
11.6036 17.4613 0.226074 
8.77814 17.3619 0.0926385 
12.9359 18.951 1.41309 
15.924 18.6401 1.40604 
14.1782 17.4043 2.74004 
15.7892 18.6785 4.0805 
14.3815 20.1227 2.83772 
14.5348 20.2723 0.0187604 
17.1927 20.0833 0.0661464 
20.2147 20.1006 0.0966178 
18.7505 18.85 1.4951 
17.2467 17.2893 2.85668 
20.0634 17.2378 2.83135 
17.1203 20.2554 2.94444 
20.1381 19.9362 2.86266 
22.9747 17.2171 0.0601485 
21.5378 18.615 1.4408 
24.309 18.6602 1.4163 
23.005 17.3954 2.96959 
22.9172 19.9931 2.92603 
28.6226 17.1568 2.73753 
28.6881 20.1525 2.82807 
27.3978 18.6664 1.35258 
25.8448 17.1873 2.68737 
25.8972 19.9024 2.89396 
25.8727 19.9386 0.211746 
0.0902804 22.8746 0.00113728 
1.6229 21.3841 1.40851 
3.06946 23.0342 2.9753 
1.43998 24.3305 1.5339 
0.0197477 22.9033 2.88615 
2.96285 23.0818 0.145486 
4.39062 24.4929 1.4245 
4.29382 21.453 1.70242 
7.29401 21.4984 1.48735 
5.68383 22.983 2.91039 
7.02292 24.3683 1.513 
5.87065 22.811 0.1992 
10.2173 21.6075 1.41429 
8.35232 23.0027 2.97835 
11.5247 22.9981 2.7865 
8.58591 22.9996 0.153905 
13.0158 21.5598 1.48298 
15.862 21.5272 1.36523 
14.3335 23.0161 2.87016 
15.8519 24.3974 1.2438 
12.9483 24.5889 1.37149 
14.438 23.1216 0.0588762 
18.6174 21.6843 1.46895 
17.1491 23.0726 2.8966 
20.0466 22.9329 2.87456 
18.632 24.4168 1.39947 
20.2185 22.8981 0.0823494 
21.6013 21.5217 1.44431 
24.4047 21.5511 1.45299 
24.454 21.313 4.07671 
22.8639 22.8122 2.91388 
24.4437 24.3012 1.39999 
21.5683 24.2477 1.45755 
23.0444 22.9826 0.00696353 
27.3424 21.3695 1.42323 
26.073 22.9164 2.86954 
27.369 24.3082 1.54373 
25.8859 22.884 0.203303 
1.46041 27.3785 1.54117 
2.83494 25.945 2.91807 
0.0711492 25.905 2.99352 
0.127879 25.9669 0.0970405 
3.05733 25.9061 0.0613398 
4.36268 27.3772 1.63508 
7.1709 27.4525 1.56364 
5.59079 25.9355 2.97867 
5.8773 25.9087 0.239571 
11.5056 28.6138 2.82388 
10.0407 24.6519 1.45996 
10.1637 27.3194 1.41333 
8.7135 25.8048 2.95406 
11.7605 26.0356 2.91881 
8.52738 26.0051 0.0246742 
14.3878 28.7032 2.84813 
13.1117 27.5243 1.22383 
15.7956 27.1998 1.49602 
14.3771 25.9223 2.92955 
14.3113 25.9372 0.0440125 
20.0123 28.6053 2.77529 
18.808 27.2243 1.25407 
17.2744 25.9464 2.57226 
20.0595 25.8107 2.76215 
17.1954 26.0533 0.0404791 
22.8816 28.6131 2.75961 
21.5265 27.1168 1.37498 
23.0226 25.9638 2.94264 
24.4038 27.0713 1.41784 
27.4476 27.3823 1.43868 
26.0085 25.806 2.93066 
26.007 25.8127 0.0388837 
1.40851 1.53434 4.18197 
1.40582 1.46075 7.29743 
2.9199 2.81499 5.89035 
2.63628 0.0418364 5.67946 
4.35625 1.41935 4.41771 
7.27385 1.42559 4.39139 
4.39391 1.44991 7.20159 
7.29249 1.42568 7.11752 
5.93309 3.12764 5.68005 
10.0965 1.43437 4.35092 
10.1499 1.50004 6.91295 
8.34974 3.05544 5.7111 
11.4489 3.04968 5.66767 
8.75743 0.0713495 5.81035 
12.8274 1.21842 4.14057 
15.7615 1.41546 4.28242 
12.7478 1.59997 7.0737 
15.7475 1.29373 7.03296 
14.406 2.85807 5.70023 
14.3278 0.126401 5.50739 
18.6912 1.41465 4.2018 
18.7561 1.38746 7.0663 
17.2701 2.78374 5.58811 
20.1811 2.83348 5.73557 
20.3003 0.0019069 5.70349 
17.1782 0.0643406 5.5772 
21.4701 1.36458 4.273 
24.5445 1.49181 4.41976 
21.6267 1.39091 7.34525 
22.9704 2.89698 5.65128 
24.3024 1.51932 6.96869 
23.0764 0.0825954 5.6823 
27.2718 1.5519 4.22855 
28.5499 3.04579 5.58502 
27.2096 1.5076 7.0997 
25.8451 3.09836 5.74089 
25.9223 0.0949887 5.78707 
1.34474 4.24896 4.37857 
1.47824 6.99525 4.45442 
1.27437 4.17054 7.39529 
1.48611 7.1234 7.26246 
2.95189 5.73103 5.80301 
4.25273 4.21032 4.37796 
4.28276 6.96939 4.36879 
7.23637 4.47017 4.21986 
7.27003 7.16483 4.22145 
4.32456 4.33968 7.27535 
4.16397 6.93739 7.39759 
7.23956 4.44209 7.03834 
5.66598 5.63995 5.68684 
7.04176 7.19699 7.20158 
9.84088 4.37571 4.36263 
10.1314 7.30608 4.33173 
9.99218 4.27086 7.13985 
8.74251 5.82816 5.6213 
10.1192 7.19507 7.23387 
11.7573 5.60124 5.65536 
13.3132 4.20148 4.27793 
15.9571 4.23439 4.2446 
12.8927 7.07568 4.18001 
15.8855 7.26554 4.4087 
13.0381 4.25932 7.07528 
15.7044 4.26423 7.12977 
12.7356 7.0611 7.21053 
14.5407 5.74162 5.70442 
15.889 7.17674 7.12786 
18.5597 4.37318 4.2216 
18.6291 7.27164 4.29013 
18.4291 4.2877 7.28449 
17.2534 5.75989 5.72256 
18.7401 7.16048 7.21478 
20.029 5.55902 5.7685 
21.5655 4.2789 4.33349 
21.567 7.13555 4.5106 
24.2874 7.21453 4.24571 
24.4113 4.3156 4.29287 
24.4406 4.35971 7.21243 
21.4768 4.23236 7.33954 
21.445 7.11995 7.07225 
23.1777 5.89263 5.92988 
24.4522 7.2734 7.32285 
27.3255 4.38633 4.21279 
27.0657 7.29784 4.25676 
28.6418 5.90703 5.72898 
27.3306 4.44312 7.03621 
25.8107 5.6756 5.68711 
27.4362 7.12834 7.24517 
1.44072 10.1706 4.25632 
1.55677 10.0988 7.14185 
2.93489 8.44734 5.72862 
3.0024 11.5814 5.68592 
0.067427 11.5673 5.83812 
4.32806 9.93961 4.46065 
4.31296 9.76394 7.22378 
5.8272 8.54386 5.6594 
7.18938 9.95647 7.00908 
5.57069 11.5542 5.83098 
8.59114 8.64578 5.56325 
9.96996 10.0829 7.25142 
11.3834 8.69178 5.71515 
8.53321 11.5737 5.68919 
11.3108 11.4226 5.80457 
12.8606 10.0048 4.46803 
12.898 10.0971 7.15454 
14.3305 8.68151 5.68394 
15.7272 9.8584 7.17038 
14.3856 11.4637 5.58113 
18.7759 9.84787 4.26616 
19.9766 8.53826 5.70792 
17.2318 8.74835 5.85678 
18.7304 10.1274 7.19134 
17.2759 11.41 5.73715 
20.0055 11.4636 5.64 
21.6046 10.0144 4.25876 
24.3807 9.78937 4.16833 
21.5162 10.1118 7.02207 
22.8435 8.56018 5.75041 
23.061 11.3693 5.67268 
24.4322 9.93367 7.16694 
27.1533 10.0976 4.16795 
28.6784 8.7076 5.76217 
25.863 8.53261 5.6552 
27.261 10.0231 7.0536 
25.9077 11.2593 5.6447 
1.46098 12.9762 4.3834 
1.40037 15.8691 4.14999 
1.61867 13.0818 7.1373 
1.5679 15.7455 7.15134 
2.9785 14.4741 5.66507 
0.131922 14.5168 5.77819 
4.16595 15.9229 4.19621 
4.28267 12.9945 4.31262 
7.08078 12.9831 4.13807 
7.08868 15.9631 4.1689 
4.38872 15.9597 7.12478 
4.20693 13.0294 7.16896 
7.04943 12.9536 7.11113 
5.67993 14.4426 5.4583 
7.19368 15.8518 7.13882 
9.94665 12.9222 4.10947 
10.0206 15.8569 4.22269 
10.0742 13.0416 7.18559 
8.47739 14.4312 5.61938 
10.0753 15.858 7.26089 
11.3427 14.5112 5.65086 
12.8596 12.9693 4.54822 
15.8931 13.0993 4.39135 
12.8921 15.6611 4.30596 
15.741 15.9249 4.32171 
12.8671 12.8708 7.21392 
15.7582 12.9888 7.16956 
12.8346 15.9203 7.22262 
14.3546 14.4321 5.8595 
15.5758 15.9606 7.08813 
18.5656 13.2304 4.45548 
18.7723 15.8864 4.38542 
18.8848 13.1236 7.24462 
17.2589 14.5613 5.91377 
18.6288 15.9125 7.17105 
20.2642 14.3398 5.79719 
21.4153 12.7905 4.29784 
21.534 15.9604 4.23756 
24.3917 15.8391 4.13477 
24.453 12.9292 4.43829 
21.6681 12.9031 7.15688 
21.481 15.6647 7.15852 
22.8654 14.4771 5.61574 
24.1267 12.8066 7.06899 
24.1983 15.7327 7.15462 
27.274 13.0549 4.45201 
27.2889 15.782 4.29651 
27.3849 13.0019 7.25026 
25.8763 14.218 5.95491 
27.3454 15.7047 7.25484 
1.45964 18.7134 4.2937 
1.50842 18.6896 7.20698 
2.89414 17.4102 5.79785 
2.92983 20.0063 5.76871 
0.190944 19.9969 5.89275 
4.33915 18.6296 4.32599 
7.19157 18.6037 4.24862 
4.31211 18.5858 7.25612 
5.63155 17.1502 5.72832 
7.09778 18.5816 7.20996 
5.64913 19.9375 5.81833 
10.1522 18.5926 4.18586 
8.76552 17.2866 5.74487 
10.069 18.6151 7.27265 
11.3969 17.1538 5.72028 
8.65109 19.7104 5.71114 
11.4313 20.0406 5.72505 
12.8276 18.5893 4.34739 
12.9548 18.5994 7.29123 
14.2492 17.2549 5.68042 
15.683 18.6003 7.1782 
14.3723 20.1357 5.91708 
18.6539 18.7637 4.30554 
17.1336 17.3766 5.65513 
18.6104 18.6661 7.17125 
20.2157 17.1951 5.82253 
17.0829 20.1309 5.75669 
20.0937 19.875 5.86133 
21.5268 18.5135 4.4112 
24.2422 18.6205 4.54111 
21.4592 18.4779 7.29167 
22.8265 17.036 5.81778 
22.886 20.2635 5.69983 
24.2643 18.5786 7.27307 
27.3254 18.6438 4.24501 
28.646 17.2358 5.70786 
25.6702 17.2241 5.65053 
27.1368 18.4237 7.10714 
25.9243 20.0863 5.7237 
1.58758 21.4568 4.39455 
1.51261 24.3162 4.36247 
1.52849 21.3743 7.46056 
2.9849 22.697 5.85582 
0.0976612 22.6591 5.8057 
1.38752 24.2349 7.24441 
4.4685 24.3231 4.49891 
4.36661 21.5126 4.51965 
7.0085 21.4725 4.56503 
7.21796 24.4963 4.25213 
4.39489 24.404 7.09695 
4.38101 21.3803 7.19812 
7.19694 21.5509 7.34621 
5.7467 22.9164 5.79346 
7.17442 24.399 7.17937 
9.91855 21.5115 4.33903 
10.1089 24.4112 4.34319 
9.89162 21.5836 7.19115 
8.55858 23.0118 5.77294 
11.4762 22.9284 5.63487 
10.1153 24.4662 7.10404 
13.0508 21.5494 4.32888 
15.7724 21.5919 4.2682 
13.0743 24.3438 4.36735 
12.8965 21.5213 7.27853 
15.7777 21.5033 7.07323 
14.4061 23.0246 5.74764 
15.9146 24.5434 6.90251 
12.9311 24.5269 7.02935 
18.6956 21.4922 4.31478 
18.5128 24.5324 4.19249 
18.5745 21.4949 7.05102 
17.2578 22.9634 5.69196 
20.2819 22.6863 5.58852 
18.7005 24.1748 7.14696 
21.3451 21.3939 4.24876 
24.3844 24.0886 4.15574 
21.5707 24.4287 4.22324 
21.5893 21.3188 7.17376 
22.925 22.7551 5.5345 
24.4751 24.0741 7.21796 
24.4235 21.4124 7.0516 
21.5955 24.3767 7.08844 
27.3106 21.4793 4.29296 
27.3668 24.2413 4.4088 
27.3298 21.3973 7.31446 
25.9714 22.6309 5.77114 
27.2772 24.413 6.97941 
1.38844 27.2284 4.29678 
1.4769 27.3753 7.08512 
2.82465 25.6951 5.8076 
0.0830256 25.6132 5.71768 
0.0321961 28.7048 5.46536 
4.13178 27.0564 4.38728 
7.18636 27.2181 4.28915 
5.74879 28.6619 5.62848 
4.15258 27.2567 7.08426 
5.68016 25.8087 5.78096 
7.1715 27.3135 7.17149 
9.9126 27.4527 4.35243 
11.4805 28.5646 5.68509 
8.65913 25.8966 5.74787 
10.0118 27.3499 7.22608 
11.3799 25.9206 5.73855 
15.7398 24.6401 4.20575 
12.9943 27.3769 4.29334 
15.9662 27.3137 4.22396 
12.8583 27.483 7.1357 
14.3523 26.0118 5.64704 
15.6684 27.3219 7.04415 
18.5986 27.3747 4.29145 
17.3469 25.7994 5.74235 
18.6401 27.2621 7.01143 
20.2422 25.7888 5.76654 
21.5046 27.3857 4.38545 
24.4424 27.1706 4.30751 
21.6941 27.324 7.17383 
23.0116 25.7321 5.78887 
24.4218 27.2623 7.08228 
27.3054 27.229 4.34954 
25.6682 25.5642 5.66499 
27.2595 27.3144 7.22782 
2.82662 2.82648 8.62481 
2.95274 0.169211 8.59728 
1.26699 1.50386 10.0579 
2.86648 2.79441 11.4041 
2.77424 0.089375 11.2476 
5.75392 2.73914 8.45628 
4.44387 1.27041 10.0487 
7.20696 1.37643 10.2241 
5.77241 2.81548 11.453 
8.38375 2.78678 8.62405 
11.3747 3.04421 8.69609 
11.5985 0.0485154 8.47632 
8.62141 0.145446 8.65971 
11.5556 0.140815 11.4132 
10.1117 1.53046 9.83708 
8.83088 2.73727 11.6531 
11.4923 2.74727 11.5626 
8.82859 0.105972 11.4242 
14.2675 2.83674 8.68206 
14.1087 0.316345 8.29974 
14.1101 0.0494911 11.6124 
12.9188 1.46569 10.1182 
15.7845 1.54659 10.0936 
14.2857 2.93093 11.5076 
17.1861 2.80066 8.46841 
20.126 2.56455 8.60979 
19.9979 0.107287 11.5574 
18.533 1.30171 10.0163 
17.4216 2.9392 11.575 
20.0661 2.72472 11.4929 
23.1178 2.93322 8.6051 
23.2399 0.124391 8.59973 
21.5751 1.24175 10.098 
22.7934 2.64522 11.6671 
24.2255 1.44421 10.0651 
28.471 2.80623 8.61108 
25.8564 2.7958 8.47499 
25.8241 0.0891111 8.44835 
28.6827 2.84314 11.7244 
27.1823 1.39218 10.0969 
25.9054 2.76762 11.488 
2.91781 5.58435 8.71155 
0.0560219 5.89728 8.7664 
1.54531 4.25391 10.2884 
1.5368 7.17392 10.0608 
2.99166 5.8127 11.7357 
0.131546 5.80853 11.4153 
5.90889 5.57028 8.55143 
4.32619 4.23713 10.0375 
4.29087 7.06542 10.0326 
7.23458 4.30551 10.0593 
7.08322 7.11848 10.0983 
5.66929 5.7703 11.4808 
8.57134 5.77385 8.62088 
11.4522 5.56405 8.65031 
9.84798 4.31759 9.95938 
9.96654 7.08205 9.96451 
8.57971 5.72136 11.4602 
11.4273 5.69183 11.4761 
14.2988 5.64687 8.56293 
12.9781 4.21435 10.0702 
15.8605 4.43202 10.0847 
12.7521 7.26722 10.1569 
15.771 7.19856 9.97858 
14.2076 5.6858 11.4968 
17.155 5.62839 8.68965 
20.0553 5.70065 8.54489 
18.7254 4.26581 9.83968 
18.7351 7.10898 9.90531 
17.2928 5.84885 11.5624 
19.9432 5.64249 11.4963 
22.9518 5.73414 8.70617 
21.2604 4.17609 9.91781 
21.4386 7.07153 10.1027 
22.847 5.59886 11.4881 
24.3646 4.28248 10.0251 
24.3832 7.01367 10.0542 
25.9211 5.66673 8.70856 
27.355 4.2952 10.0832 
27.3304 7.20797 10.2948 
25.8005 5.59616 11.4215 
2.8954 8.76143 8.77856 
2.73951 11.4341 8.55239 
0.152722 8.60445 8.72256 
1.36629 10.164 10.2118 
2.98677 8.57861 11.6806 
2.88935 11.5638 11.5482 
0.0231901 8.62054 11.5005 
5.71325 8.61718 8.74284 
5.65483 11.3627 8.60993 
4.30566 10.0833 10.252 
7.14978 10.069 9.91266 
5.82832 8.64747 11.5633 
5.86678 11.5192 11.5397 
8.56594 8.44724 8.6517 
11.4486 8.47807 8.53207 
8.63403 11.6901 8.54725 
11.3384 11.4085 8.52812 
11.3865 8.65238 11.3812 
9.82933 10.004 10.0022 
8.58379 8.54717 11.4258 
8.56391 11.5569 11.3382 
11.3959 11.3768 11.3996 
14.3114 8.65148 8.65138 
14.3489 11.3938 8.56461 
12.7539 9.93439 9.81462 
15.7417 10.0007 9.86639 
14.2401 8.59929 11.3104 
14.175 11.463 11.329 
17.2298 8.47041 8.4672 
20.1798 8.59574 8.53452 
17.1675 11.6149 8.22015 
20.062 11.6112 8.7216 
18.3439 10.2508 9.81736 
17.0575 8.65424 11.2454 
20.006 8.65119 11.4101 
17.0975 11.713 11.5648 
19.8759 11.4294 11.4186 
22.9246 8.45169 8.4593 
22.87 11.4081 8.67524 
21.4532 9.99089 10.1294 
22.9742 8.64776 11.313 
22.8491 11.498 11.3772 
24.3386 9.89836 9.82304 
28.652 11.4545 8.47054 
26.1153 8.48787 8.65822 
25.7671 11.4447 8.46335 
28.6833 11.4983 11.4073 
27.0754 10.0745 9.79929 
25.739 8.55568 11.6163 
25.8597 11.4147 11.391 
2.99168 14.3006 8.62777 
0.18851 14.233 8.67297 
1.36351 12.7492 9.87758 
1.43055 15.779 10.0656 
2.86329 14.4432 11.5474 
0.129099 14.1305 11.3884 
5.62745 14.4358 8.53617 
4.25939 12.9079 10.1854 
4.51072 15.7009 10.1173 
7.00715 12.9189 9.93351 
7.22724 15.6279 10.1997 
5.70649 14.1945 11.5992 
8.44741 14.3277 8.46524 
11.3791 14.4373 8.48523 
9.95058 13.0567 10.1024 
10.0346 15.7111 9.81685 
8.65471 14.4147 11.5393 
11.5376 14.4408 11.5065 
14.4039 14.3523 8.60158 
12.7243 12.8172 9.96046 
15.6767 12.8841 10.1517 
12.7144 15.8082 9.99975 
15.6689 15.7677 10.0873 
14.281 14.3342 11.8084 
17.1333 14.5126 8.75445 
19.9625 14.5968 8.74757 
18.635 13.037 10.1279 
18.6899 15.7886 10.3602 
16.8486 14.5229 11.6179 
20.0816 14.2313 11.587 
23.0053 14.16 8.56081 
21.5797 12.9905 10.0603 
21.4211 15.9295 10.0865 
22.8372 14.5676 11.6268 
24.3776 15.6057 10.1907 
24.3233 12.8134 10.0364 
25.5455 14.2641 8.49709 
26.9605 12.9864 9.93481 
27.2529 15.7021 9.95767 
25.7349 14.413 11.5734 
2.75238 17.0526 8.72021 
2.89346 19.9255 8.86592 
0.101398 17.0749 8.60313 
0.0224146 19.7626 8.6356 
1.44094 18.5321 10.209 
3.02985 17.0136 11.5006 
3.0487 20.0969 11.6177 
0.0281506 19.9072 11.4561 
5.94963 17.0805 8.74769 
5.62141 19.9436 8.69855 
4.41546 18.5739 10.2909 
7.19583 18.6002 9.91135 
5.88817 16.9759 11.4877 
5.73718 20.0402 11.4986 
8.52787 17.248 8.63557 
11.4967 17.2018 8.62162 
8.50568 20.1671 8.57011 
11.4992 20.025 8.74704 
10.033 18.4728 10.0123 
8.66679 16.978 11.3254 
11.3233 17.2456 11.4687 
8.48953 19.867 11.4848 
11.4347 20.0491 11.3389 
14.3533 17.3386 8.82783 
14.3258 19.9721 8.72964 
12.7924 18.3748 10.126 
15.6727 18.6507 10.0231 
14.3391 17.181 11.5225 
14.343 20.0366 11.6312 
17.2536 17.0664 8.56111 
19.995 17.2842 8.72452 
17.0791 20.0257 8.66375 
20.0677 20.0448 8.59781 
18.784 18.7099 10.0492 
17.1821 17.2845 11.2835 
20.2576 17.4036 11.5778 
17.1453 19.9414 11.467 
19.9345 20.0713 11.6251 
22.9296 17.19 8.7421 
23.0068 20.0367 8.61477 
21.5176 18.7444 10.0953 
22.9377 17.2322 11.4553 
22.9678 20.1888 11.4388 
24.4305 18.6681 10.2676 
25.8276 17.1363 8.5744 
25.7897 20.028 8.48893 
28.6764 17.0447 11.3643 
27.1584 18.6685 10.0351 
25.8005 17.0916 11.5214 
25.7443 20.2746 11.3392 
2.96495 22.951 8.61031 
0.215787 22.8805 8.71684 
0.15575 22.989 11.3371 
1.61929 24.3838 10.0858 
1.50594 21.4763 10.0649 
3.08351 22.9761 11.5367 
5.71341 23.0163 8.51105 
4.56968 24.2862 10.084 
4.40948 21.5634 9.90623 
7.20299 24.2776 10.0266 
7.07513 21.5003 10.0571 
5.8736 22.8841 11.4928 
8.71639 22.9824 8.52918 
11.3376 23.0422 8.56491 
10.14 24.4056 10.1397 
10.1122 21.5157 10.0528 
8.59055 22.8934 11.5424 
11.4821 22.9897 11.3345 
14.2678 23.0223 8.43906 
15.8462 24.3414 9.99694 
12.907 24.4642 9.79207 
14.3505 23.0598 11.4065 
15.9196 21.6235 10.0087 
12.9378 21.5137 9.99916 
17.2851 23.0445 8.58974 
20.088 22.9145 8.45108 
18.5434 21.6 9.93695 
18.5521 24.3918 9.86898 
17.4184 22.7931 11.5177 
20.0527 22.9229 11.4415 
22.817 22.9551 8.48419 
21.5527 24.2533 10.0094 
24.5204 21.6823 10.0638 
22.7883 22.8151 11.3972 
21.3223 21.4966 10.0777 
24.4772 24.3758 10.0264 
26.0314 22.9576 8.67225 
27.3465 24.4307 9.92839 
25.9259 22.921 11.3392 
27.391 21.3974 10.0615 
2.98423 25.848 8.66989 
0.12169 25.767 8.5548 
2.90307 25.9126 11.4867 
1.32594 27.3093 9.97887 
0.0137687 28.5824 11.5746 
5.66902 28.654 8.59799 
5.61931 26.0041 8.40191 
7.17935 27.2798 10.0655 
4.20652 27.3033 9.90562 
5.56751 28.6127 11.4309 
5.84194 25.7851 11.429 
8.54592 25.7434 8.52713 
11.492 25.9131 8.53615 
11.5015 25.7903 11.4865 
8.46683 25.9231 11.3444 
10.1136 27.4458 10.1213 
14.2658 25.9762 8.65737 
12.8163 27.3726 10.0332 
14.2364 26.1193 11.4926 
15.1792 27.8373 9.93487 
17.0413 28.582 8.56757 
20.1699 28.5389 8.56234 
17.16 26.0539 8.416 
20.2948 25.6461 8.58377 
17.6911 25.0542 11.7975 
18.9077 27.1453 9.98803 
20.2135 25.6577 11.5087 
16.686 26.4205 10.7016 
17.0709 28.7012 11.4966 
22.974 25.8703 8.57458 
21.6541 27.1926 9.96563 
22.8918 25.6095 11.5551 
24.3501 27.273 9.77556 
22.885 28.5177 11.4465 
28.6467 28.5897 8.57291 
25.8323 25.8313 8.67256 
27.2755 27.2361 10.0331 
25.7564 25.9404 11.3036 
25.8699 28.6733 11.5024 
28.6215 25.9122 11.3887 
1.56552 1.3941 13.0025 
2.90043 2.89535 14.3083 
0.096663 2.90097 14.3351 
1.40348 1.45683 15.9581 
0.200975 0.00875971 14.5094 
4.2403 1.23189 13.0384 
7.03438 1.36098 12.9942 
4.15432 1.4831 15.8048 
7.21018 1.49097 15.6458 
5.58064 2.89045 14.4006 
10.1017 1.47127 13.0229 
10.0641 1.39237 15.886 
8.71413 2.84295 14.3561 
11.5437 0.0215811 14.5367 
11.4642 2.91776 14.539 
12.7714 1.55957 12.9961 
15.7216 1.65576 12.9984 
14.3562 3.06028 14.334 
14.1229 0.128987 14.1519 
12.9382 1.42817 15.8185 
15.8424 1.48168 15.8644 
18.4465 1.28281 13.0464 
20.0014 2.73649 14.1623 
18.5422 1.2485 16.0029 
17.2955 2.92641 14.4617 
21.5245 1.21343 13.1233 
24.3563 1.21728 12.8386 
24.2902 4.1006 12.9848 
21.5517 1.32807 15.6204 
24.4607 1.32199 15.8633 
23.0152 2.73619 14.4071 
27.3844 1.18498 13.0446 
25.7506 2.80078 14.1426 
27.2965 1.34082 15.6995 
1.4366 4.45365 13.0105 
1.3157 7.23103 13.0298 
1.32697 4.29847 15.8116 
1.31298 7.10568 15.7901 
0.0276133 5.77495 14.3564 
2.8151 5.66255 14.4939 
4.23227 4.34642 12.8408 
7.29749 4.23637 12.7913 
4.46097 7.33507 13.1137 
7.15701 7.15598 12.8257 
5.776 5.84251 14.1756 
4.31511 4.31547 15.8295 
4.35437 7.29577 15.7504 
7.25087 4.25888 15.6853 
7.33459 7.22707 15.7669 
10.3582 4.40029 13.0644 
10.0589 7.36132 12.8404 
8.71709 5.81965 14.1645 
10.1731 4.43297 15.6854 
10.0967 7.10968 15.8695 
11.7245 5.8869 14.4128 
12.9328 4.30216 12.8404 
15.9833 4.40926 12.9183 
13.0557 7.22842 12.9291 
15.5759 7.23377 13.0089 
15.8098 4.33806 15.757 
12.8986 4.31786 15.7126 
12.9573 7.2127 15.9151 
15.7054 7.13003 15.6349 
14.3006 5.79019 14.4033 
18.63 4.46254 13.0882 
18.617 7.27634 12.9223 
20.0134 5.63158 14.3408 
18.7075 4.2898 15.8283 
18.7247 7.15714 15.6779 
17.3168 5.81767 14.3912 
21.4068 4.3799 12.9762 
21.4599 7.18009 12.9657 
24.3533 6.90676 12.9186 
21.5642 4.38565 15.8255 
21.6406 7.19573 15.7851 
24.3315 7.17238 15.6811 
24.3627 4.21058 15.9229 
22.9845 5.64384 14.479 
27.3592 4.39186 12.8182 
27.131 7.20294 12.7818 
25.6653 5.60883 14.3281 
27.1708 4.2362 15.6569 
27.0323 6.99468 15.7053 
1.34971 10.0283 13.0127 
2.7797 11.6106 14.3212 
0.0022955 11.5671 14.2436 
1.34448 10.102 15.7067 
2.94773 8.74616 14.3825 
4.3691 9.99737 12.8091 
7.32039 10.0415 12.9467 
5.81057 8.71283 14.336 
4.37712 10.1165 15.8778 
7.16429 10.1613 15.6861 
5.7198 11.4741 14.375 
9.99446 10.0734 12.9188 
8.53592 8.5483 14.32 
11.5141 8.5408 14.2054 
9.95236 10.0467 15.8289 
11.2801 11.4617 14.396 
8.69328 11.4897 14.4519 
12.7736 9.94497 12.7973 
15.6353 10.0969 12.6723 
13.9592 11.2833 14.416 
12.7064 9.83029 15.7624 
15.6936 10.0742 15.7884 
14.2468 8.72148 14.3969 
18.6788 10.013 12.8508 
17.2185 8.69153 14.1704 
20.0317 11.6308 14.3229 
20.1026 8.6293 14.1616 
18.5903 10.0118 15.6272 
17.0811 11.3718 14.3839 
21.5916 10.3155 12.8065 
24.1946 9.83968 12.8362 
22.8506 8.64993 14.2462 
21.5664 9.95832 15.8365 
24.2038 10.2296 15.8842 
22.805 11.6115 14.522 
27.187 10.165 12.6783 
28.7025 8.55896 14.3418 
25.6581 11.4201 14.2206 
27.2579 10.179 15.6688 
25.7698 8.74082 14.5353 
1.62803 12.9453 12.8547 
1.3695 15.9875 12.9129 
2.85132 14.437 14.2 
1.4367 12.8603 15.7044 
1.27579 15.8899 15.5905 
4.38938 12.8704 12.9955 
4.43263 15.5905 12.9073 
7.2965 12.8081 13.0034 
7.24435 15.7846 12.9491 
5.72617 14.5558 14.4459 
4.32446 15.7828 15.8198 
4.15402 12.8315 15.868 
7.19075 12.9819 15.9389 
7.33124 15.8029 16.1368 
10.085 12.9907 12.9795 
10.0791 15.6341 12.7997 
11.4186 14.2853 14.3213 
9.92457 12.9184 15.6964 
9.96724 15.8488 15.8139 
8.45144 14.3361 14.5224 
12.8712 12.8927 13.0362 
15.5253 12.8635 13.0634 
12.7416 15.8798 12.9619 
15.6795 15.8593 13.0454 
12.7238 12.6673 15.839 
15.4724 12.8833 15.8507 
12.758 15.9292 15.888 
15.7313 15.9147 15.9356 
14.2623 14.5101 14.5451 
18.5753 12.9818 12.8835 
18.6545 15.7007 12.9107 
18.5587 13.0065 15.8546 
18.6505 15.7961 15.6447 
17.2364 14.3213 14.4047 
20.1242 14.4536 14.3768 
21.454 12.9901 12.8371 
21.506 15.9269 13.0439 
24.4917 15.6906 12.9665 
24.2706 12.8927 12.8167 
21.4043 13.087 15.9882 
21.6624 15.8178 15.8499 
24.2654 12.8505 15.8202 
24.4648 15.8533 15.8692 
22.9293 14.3131 14.3958 
28.6391 14.3303 14.1397 
27.0554 12.7 12.7619 
27.1723 15.7111 12.752 
25.6761 14.1421 14.2624 
27.1635 12.7544 15.7368 
27.1817 15.8903 15.6429 
1.49937 18.7787 12.9684 
0.0283703 17.3447 14.1841 
0.0955903 20.282 14.1531 
1.27757 18.6597 15.6055 
4.03915 18.5395 15.9313 
2.90402 20.1825 14.5434 
2.97604 17.1904 14.4143 
4.40245 18.6332 13.0365 
7.15755 18.5853 13.0128 
5.72478 19.9184 14.5105 
7.22698 18.6308 15.7286 
5.58411 17.2791 14.3728 
9.91424 18.5064 12.9316 
8.56887 20.059 14.2916 
11.2743 17.1511 14.3099 
9.9616 18.6608 15.6762 
11.5524 20.055 14.3868 
8.56032 17.1318 14.4422 
12.825 18.5638 12.826 
15.781 18.4764 12.9214 
12.8648 18.5758 15.7555 
15.6915 18.5685 15.7017 
14.4306 19.961 14.3675 
14.211 17.056 14.3892 
17.2219 17.1877 14.3112 
19.9879 17.2002 14.3314 
18.5475 18.6769 13.0203 
17.2551 20.0015 14.4754 
18.6792 18.6639 15.8554 
20.0632 20.0965 14.4435 
21.7181 18.766 12.9271 
24.3787 18.7771 12.812 
23.0076 17.1934 14.1663 
21.6697 18.4758 15.6984 
24.5049 18.6774 15.8136 
22.9132 20.0885 14.3673 
25.9301 17.4828 14.2865 
27.2727 18.6982 12.8094 
25.8176 20.2154 14.179 
27.2578 18.9525 15.6857 
1.47602 24.4871 12.6355 
1.58594 21.5191 12.6869 
2.87421 22.9494 14.1631 
0.256082 22.8839 14.0899 
1.53573 21.7161 15.8093 
1.55355 24.1961 15.591 
4.37039 21.5095 12.9248 
4.38302 24.3313 12.8056 
7.14541 21.4164 12.8021 
7.09097 24.368 12.9261 
5.82733 22.8441 14.2027 
4.24875 21.5775 15.7166 
7.09896 21.4653 15.8165 
4.36927 24.3864 15.7179 
7.13064 24.5943 15.7468 
9.94141 24.4649 12.9303 
10.1034 21.5054 12.8565 
10.1176 21.4612 15.7328 
11.3978 23.0383 14.3598 
9.8398 24.592 15.7414 
8.62483 23.004 14.3727 
12.7757 24.296 12.8322 
15.7864 24.4857 12.8425 
12.6613 21.4085 12.9748 
15.791 21.7331 12.9114 
12.8926 21.434 15.8091 
15.8036 21.4999 15.774 
12.7701 24.4092 15.5872 
15.737 24.4924 15.8127 
14.3511 23.0969 14.4008 
18.9038 23.9757 13.1626 
18.6422 21.4521 13.0869 
20.2138 22.832 14.5109 
17.0246 22.8392 14.4348 
18.5443 21.5774 15.7949 
18.6383 24.3403 15.7054 
24.408 24.365 12.95 
24.4773 21.5816 12.8889 
21.5155 24.332 13.1737 
21.5377 21.4664 13.002 
21.602 21.4278 15.8258 
24.4455 21.429 15.5658 
24.3779 24.3625 15.7846 
21.3396 24.3173 15.8455 
23.0167 22.9735 14.4594 
25.844 22.9234 14.2407 
27.3817 21.6033 12.658 
27.3251 24.3981 12.6849 
27.2952 21.5409 15.6952 
27.356 24.3255 15.7232 
1.50824 27.2674 12.91 
2.99494 25.6909 14.3397 
0.108974 25.7871 14.2666 
2.78565 28.7013 14.3743 
1.30487 27.0885 15.8133 
7.28832 27.2409 12.8589 
4.28006 27.1901 12.8562 
5.7502 26.0707 14.3414 
4.21733 27.2385 15.8294 
7.40714 27.379 15.8487 
5.81641 28.5595 14.4205 
10.1155 27.3681 13.0046 
8.45581 25.9229 14.242 
8.63582 28.662 14.2749 
10.1021 27.2958 15.8756 
11.4745 25.9013 14.3713 
15.7545 27.2768 12.9065 
12.9127 27.395 12.9412 
14.2362 25.8572 14.3269 
12.9693 27.4633 15.8289 
15.5563 27.2959 15.752 
18.5949 27.1245 12.9311 
17.0131 28.6965 14.2921 
17.0515 25.7983 14.2477 
18.5171 27.2813 15.7129 
19.9588 25.8442 14.4469 
20.0148 28.682 14.3569 
24.4701 27.1923 12.8701 
21.5094 27.0396 13.1018 
21.5 27.257 15.8778 
22.9998 28.4815 14.441 
24.3672 27.2354 15.6222 
22.8491 25.8214 14.4735 
27.264 27.1318 12.973 
25.8193 25.7765 14.325 
25.8816 28.5321 14.2694 
27.2227 27.0655 15.7491 
1.34912 1.52012 18.5853 
2.73462 2.86243 17.104 
2.84542 3.0226 20.0435 
2.8496 0.194841 19.9989 
4.28913 1.54697 18.5764 
7.21937 1.56365 18.5917 
5.81929 2.91012 17.1383 
5.67794 0.0594907 17.2829 
5.79791 2.92681 19.9556 
5.4583 0.0239894 20.2227 
9.98588 1.86116 18.579 
8.64781 2.96447 17.0373 
11.5238 2.99473 17.0405 
8.78214 0.176271 17.3005 
11.5812 0.198571 17.3843 
8.56399 2.98374 20.1072 
11.6201 2.83481 20.1404 
11.3493 0.2709 20.0894 
8.57292 0.353753 20.1719 
12.997 1.67008 18.6702 
15.6975 1.45528 18.6977 
14.3131 3.03472 17.2838 
14.5026 0.179889 17.3172 
14.2919 2.67085 20.2045 
14.3054 0.264134 20.0385 
18.7517 1.29986 18.6745 
17.2877 2.90172 17.2188 
20.0025 2.80911 17.2308 
17.2067 2.88078 20.0494 
20.2467 2.69067 20.0395 
17.061 0.107695 20.1814 
21.7094 1.35267 18.8082 
22.8916 2.76209 17.2306 
24.5152 1.46287 18.5383 
22.9855 0.0823028 17.1489 
22.9983 2.76024 20.0319 
23.116 0.049184 20.0543 
28.5319 2.86099 17.1855 
27.2976 1.24879 18.4719 
25.8038 2.77051 17.2457 
25.803 0.0156846 17.1128 
28.6285 2.9022 19.9673 
25.8389 2.91341 19.8264 
1.37947 4.27957 18.6756 
1.38727 7.11 18.6625 
2.80351 5.96369 17.1758 
2.82105 5.77582 20.0797 
7.1241 4.4655 18.4482 
4.28184 4.43801 18.518 
4.31689 7.13155 18.505 
5.77738 5.88102 17.1617 
7.28678 7.16437 18.8291 
5.76046 5.79511 19.9145 
10.0105 4.35994 18.6898 
8.6333 5.71912 17.175 