ITEM: TIMESTEP
89044
ITEM: NUMBER OF ATOMS
18
ITEM: BOX BOUNDS pp pp pp
0.0000000000000000e+00 2.8712000000000000e+01
0.0000000000000000e+00 2.8712000000000000e+01
0.0000000000000000e+00 2.8712000000000000e+01
ITEM: ATOMS x y z c_cna 
15.6404 24.0124 9.88633 5 
18.6253 24.4276 10.0737 5 
17.2265 23.0159 11.4725 5 
14.4062 25.8499 8.652 5 
14.2522 25.85 11.4677 5 
15.6404 27.6875 9.88629 5 
17.2265 28.6841 11.4723 5 
17.2219 25.8499 8.49792 5 
18.6253 27.2723 10.0736 5 
20.2008 25.8499 11.4771 5 
16.4776 25.85 10.7232 5 
17.9754 25.85 12.2217 5 
15.8278 24.4277 12.8712 5 
18.8125 24.0124 13.0585 5 
15.8277 27.2724 12.8712 5 
18.8125 27.6876 13.0584 5 
20.0468 25.85 14.2928 5 
17.2311 25.8501 14.4469 5 
ITEM: TIMESTEP
89045
ITEM: NUMBER OF ATOMS
18
ITEM: BOX BOUNDS pp pp pp
0.0000000000000000e+00 2.8712000000000000e+01
0.0000000000000000e+00 2.8712000000000000e+01
0.0000000000000000e+00 2.8712000000000000e+01
ITEM: ATOMS x y z c_cna 
15.6404 24.0124 9.88633 5 
18.6253 24.4276 10.0737 5 
17.2265 23.0159 11.4725 5 
14.4062 25.8499 8.652 5 
14.2522 25.85 11.4677 5 
15.6404 27.6875 9.88629 5 
17.2265 28.6841 11.4723 5 
17.2219 25.8499 8.49792 5 
18.6253 27.2723 10.0736 5 
20.2008 25.8499 11.4771 5 
16.4776 25.85 10.7232 5 
17.9754 25.85 12.2217 5 
15.8278 24.4277 12.8712 5 
18.8125 24.0124 13.0585 5 
15.8277 27.2724 12.8712 5 
18.8125 27.6876 13.0584 5 
20.0468 25.85 14.2928 5 
17.2311 25.8501 14.4469 5 
