ITEM: TIMESTEP
8041
ITEM: NUMBER OF ATOMS
18
ITEM: BOX BOUNDS pp pp pp
0.0000000000000000e+00 2.8712000000000000e+01
0.0000000000000000e+00 2.8712000000000000e+01
0.0000000000000000e+00 2.8712000000000000e+01
ITEM: ATOMS x y z c_cna 
15.6403 15.6401 15.3885 5 
18.6252 15.8274 15.8038 5 
15.8277 18.6249 15.8038 5 
18.8125 18.8122 15.3885 5 
17.2264 17.2262 14.392 5 
14.406 14.4059 17.2262 5 
15.6403 15.6401 19.0639 5 
17.2218 14.252 17.2262 5 
18.6252 15.8275 18.6486 5 
14.2519 17.2216 17.2263 5 
15.8276 18.6249 18.6486 5 
16.4772 16.4773 17.2263 5 
17.9756 17.9752 17.2262 5 
17.231 20.2004 17.2262 5 
20.0467 20.0464 17.2262 5 
20.2008 17.2308 17.2262 5 
18.8124 18.8122 19.0638 5 
17.2263 17.2262 20.0604 5 
ITEM: TIMESTEP
8042
ITEM: NUMBER OF ATOMS
18
ITEM: BOX BOUNDS pp pp pp
0.0000000000000000e+00 2.8712000000000000e+01
0.0000000000000000e+00 2.8712000000000000e+01
0.0000000000000000e+00 2.8712000000000000e+01
ITEM: ATOMS x y z c_cna 
15.6403 15.6401 15.3885 5 
18.6252 15.8274 15.8038 5 
15.8277 18.6249 15.8038 5 
18.8125 18.8122 15.3885 5 
17.2264 17.2262 14.392 5 
14.406 14.4059 17.2262 5 
15.6403 15.6401 19.0639 5 
17.2218 14.252 17.2262 5 
18.6252 15.8275 18.6486 5 
14.2519 17.2216 17.2263 5 
15.8276 18.6249 18.6486 5 
16.4772 16.4773 17.2263 5 
17.9756 17.9752 17.2262 5 
17.231 20.2004 17.2262 5 
20.0467 20.0464 17.2262 5 
20.2008 17.2308 17.2262 5 
18.8124 18.8122 19.0638 5 
17.2263 17.2262 20.0604 5 
