ITEM: TIMESTEP
90044
ITEM: NUMBER OF ATOMS
18
ITEM: BOX BOUNDS pp pp pp
0.0000000000000000e+00 2.8712000000000000e+01
0.0000000000000000e+00 2.8712000000000000e+01
0.0000000000000000e+00 2.8712000000000000e+01
ITEM: ATOMS x y z c_cna 
20.0961 0.00296217 11.3679 5 
20.0961 25.8993 11.5219 5 
18.6738 1.40642 12.9434 5 
18.2585 1.59384 15.9283 5 
20.0961 0.756746 15.0913 5 
20.0962 2.98201 14.3468 5 
17.2621 0.00763368 14.3422 5 
21.5186 1.40637 12.9435 5 
21.9338 1.59376 15.9283 5 
22.9304 0.00765428 14.3422 5 
20.0962 27.9704 13.5931 5 
18.2585 27.1334 12.7561 5 
20.0962 25.7453 14.3375 5 
18.6738 27.3209 15.741 5 
21.9336 27.1336 12.7562 5 
21.5186 27.3209 15.7409 5 
20.0962 2.82802 17.1625 5 
20.0962 0.0123018 17.3166 5 
ITEM: TIMESTEP
90045
ITEM: NUMBER OF ATOMS
18
ITEM: BOX BOUNDS pp pp pp
0.0000000000000000e+00 2.8712000000000000e+01
0.0000000000000000e+00 2.8712000000000000e+01
0.0000000000000000e+00 2.8712000000000000e+01
ITEM: ATOMS x y z c_cna 
20.0961 0.00296217 11.3679 5 
20.0961 25.8993 11.5219 5 
18.6738 1.40642 12.9434 5 
18.2585 1.59384 15.9283 5 
20.0961 0.756746 15.0913 5 
20.0962 2.98201 14.3468 5 
17.2621 0.00763368 14.3422 5 
21.5186 1.40637 12.9435 5 
21.9338 1.59376 15.9283 5 
22.9304 0.00765428 14.3422 5 
20.0962 27.9704 13.5931 5 
18.2585 27.1334 12.7561 5 
20.0962 25.7453 14.3375 5 
18.6738 27.3209 15.741 5 
21.9336 27.1336 12.7562 5 
21.5186 27.3209 15.7409 5 
20.0962 2.82802 17.1625 5 
20.0962 0.0123018 17.3166 5 
