ITEM: TIMESTEP
90044
ITEM: NUMBER OF ATOMS
2001
ITEM: BOX BOUNDS pp pp pp
0.0000000000000000e+00 2.8712000000000000e+01
0.0000000000000000e+00 2.8712000000000000e+01
0.0000000000000000e+00 2.8712000000000000e+01
ITEM: ATOMS x y z c_cna 
1.43456 1.44391 1.42096 3 
2.8702 2.88001 2.85601 3 
2.87045 0.00793762 2.85544 3 
4.30519 1.44387 1.42107 3 
7.1753 1.44383 1.42107 3 
5.74025 2.87986 2.85629 3 
5.74025 0.00783601 2.85578 3 
10.046 1.4438 1.42092 3 
8.6103 2.87994 2.85596 3 
11.4813 2.87996 2.85578 3 
8.61003 0.00789206 2.85543 3 
11.4808 0.00788208 2.85519 3 
12.9175 1.44362 1.42112 3 
15.7892 1.44316 1.42165 3 
14.3532 2.8794 2.85649 3 
14.3526 0.00754978 2.85604 3 
18.6607 1.44269 1.42212 3 
17.2252 2.87837 2.85756 3 
20.0963 2.8779 2.858 3 
20.0962 0.00650623 2.85804 3 
17.2245 0.00694678 2.85734 3 
22.9674 2.87846 2.85763 3 
24.4033 1.44334 1.42171 3 
21.5319 1.44275 1.42214 3 
22.968 0.00709369 2.85737 3 
28.7113 2.88005 2.8559 3 
27.2751 1.44378 1.42119 3 
25.8394 2.87955 2.85661 3 
28.7117 0.00801599 2.85525 3 
25.8399 0.00775105 2.8561 3 
1.43429 4.31578 1.4215 3 
1.43389 7.18722 1.42195 3 
2.86982 5.75166 2.85658 3 
4.30509 4.31579 1.42158 3 
4.30493 7.18729 1.42195 3 
7.17542 4.31573 1.42155 3 
7.17561 7.18727 1.42192 3 
5.74026 5.75154 2.85672 3 
10.0462 4.31565 1.4214 3 
10.0467 7.18713 1.42183 3 
8.61069 5.75158 2.85646 3 
11.4819 5.75147 2.85635 3 
15.7896 4.31458 1.42193 3 
12.9179 4.31529 1.42154 3 
12.9183 7.18665 1.42192 3 
15.7899 7.18596 1.42214 3 
14.3538 5.75075 2.85689 3 
18.6609 4.314 1.4222 3 
18.6609 7.18556 1.42228 3 
17.2254 5.74993 2.85751 3 
20.0963 5.74964 2.85775 3 
21.5318 4.31407 1.42223 3 
21.5318 7.18558 1.42231 3 
22.9673 5.75 2.85758 3 
24.4028 7.18605 1.42224 3 
24.4031 4.3147 1.42201 3 
28.7107 5.75156 2.85657 3 
27.2748 4.31545 1.42167 3 
27.2743 7.18676 1.4221 3 
25.8388 5.75084 2.85707 3 
1.43341 10.058 1.4221 3 
2.86937 8.62266 2.85697 3 
2.86897 11.493 2.85691 3 
4.30472 10.0581 1.422 3 
7.17579 10.0581 1.42195 3 
5.74025 8.62264 2.85697 3 
5.74022 11.493 2.85681 3 
10.0472 10.058 1.42197 3 
8.61118 8.62263 2.85685 3 
11.4826 8.62233 2.85693 3 
8.6115 11.493 2.85678 3 
11.4831 11.4928 2.85697 3 
12.9188 10.0575 1.42207 3 
15.7901 10.0571 1.42224 3 
14.3543 8.6217 2.85732 3 
14.3545 11.4924 2.85731 3 
18.661 10.0569 1.42235 3 
17.2255 8.62117 2.85768 3 
20.0963 8.62099 2.85783 3 
17.2256 11.4921 2.85759 3 
20.0964 11.4921 2.85773 3 
21.5318 10.0569 1.42238 3 
22.9671 8.62121 2.85776 3 
22.9671 11.4922 2.85768 3 
24.4026 10.0572 1.42234 3 
28.7095 11.4928 2.85718 3 
28.7099 8.6224 2.85714 3 
27.2739 10.0576 1.42223 3 
25.8383 8.62177 2.85751 3 
25.8381 11.4925 2.85747 3 
1.43308 12.9282 1.42165 3 
1.43328 15.7982 1.42074 3 
2.86901 14.3629 2.85619 3 
4.30466 15.7981 1.42063 3 
4.30457 12.9283 1.42153 3 
7.17589 12.9283 1.42147 3 
7.17574 15.7981 1.42057 3 
5.74018 14.3629 2.85612 3 
10.0474 12.9282 1.42151 3 
10.0472 15.7981 1.42057 3 
8.61139 14.3628 2.85608 3 
11.483 14.3628 2.85627 3 
12.9189 12.928 1.42165 3 
15.7901 12.9279 1.42183 3 
12.9187 15.7983 1.42075 3 
15.79 15.7984 1.42093 3 
14.3544 14.3629 2.85661 3 
18.661 12.9278 1.42195 3 
18.6609 15.7985 1.42104 3 
17.2255 14.3629 2.85689 3 
20.0963 14.3629 2.857 3 
21.5317 12.9278 1.42196 3 
21.5317 15.7986 1.42107 3 
22.9671 14.3629 2.85696 3 
24.4025 15.7985 1.42101 3 
24.4025 12.928 1.42192 3 
28.7095 14.3629 2.85645 3 
27.2736 12.9281 1.42181 3 
27.2738 15.7984 1.42091 3 
25.8381 14.3629 2.85675 3 
1.43395 18.6684 1.4199 3 
2.86966 17.2326 2.85516 3 
2.87033 20.1034 2.85451 3 
4.30491 18.6685 1.41999 3 
7.17548 18.6684 1.41993 3 
5.74017 17.2328 2.8553 3 
5.74019 20.1037 2.85489 3 
10.0465 18.6683 1.41976 3 
8.61071 17.2326 2.85506 3 
11.4822 17.2326 2.85513 3 
8.61006 20.1033 2.85447 3 
11.4809 20.1029 2.85409 3 
12.9182 18.6687 1.41997 3 
15.7897 18.6691 1.42023 3 
14.3539 17.233 2.85549 3 
14.3532 20.1035 2.85469 3 
18.6608 18.6695 1.42036 3 
17.2253 17.2333 2.85578 3 
20.0962 17.2334 2.85591 3 
17.2249 20.1042 2.85515 3 
20.0962 20.1045 2.85529 3 
21.5317 18.6695 1.42038 3 
24.4027 18.6693 1.42029 3 
22.9672 17.2334 2.85583 3 
22.9674 20.1043 2.85516 3 
28.7114 20.1031 2.85416 3 
28.7102 17.2328 2.85528 3 
27.2742 18.6688 1.42009 3 
25.8385 17.2331 2.8556 3 
25.8391 20.1037 2.85471 3 
1.43448 21.5397 1.41969 3 
2.8706 22.9753 2.85453 3 
1.43468 24.4116 1.41998 3 
2.87959e-05 22.975 2.8541 3 
4.30514 21.5397 1.41987 3 
7.17532 21.5396 1.41986 3 
5.74023 22.9754 2.85496 3 
7.17526 24.4115 1.42012 3 
4.30526 24.4116 1.42014 3 
10.0459 21.5395 1.41962 3 
8.6098 22.9752 2.85451 3 
11.4803 22.9748 2.85407 3 
10.0457 24.4115 1.41993 3 
12.9174 21.5397 1.41974 3 
15.7893 21.5404 1.42019 3 
14.3521 22.9748 2.85461 3 
15.7888 24.4119 1.42064 3 
12.9171 24.4115 1.42012 3 
18.6606 21.541 1.42041 3 
17.2246 22.9759 2.85556 3 
20.0961 22.9764 2.85585 3 
18.6605 24.4126 1.42102 3 
21.5317 21.5411 1.42043 3 
24.403 21.5406 1.42022 3 
22.9677 22.976 2.85557 3 
21.5318 24.4127 1.42103 3 
24.4035 24.4122 1.42068 3 
27.2749 21.5399 1.4198 3 
25.8401 22.975 2.85458 3 
27.2753 24.4118 1.42015 3 
1.43468 27.2838 1.42044 3 
2.8706 25.8477 2.85491 3 
4.30526 27.2837 1.42058 3 
7.17527 27.2837 1.42057 3 
5.74025 25.8476 2.85532 3 
10.0458 27.2837 1.42041 3 
8.60985 25.8476 2.85488 3 
11.4804 25.8474 2.85458 3 
12.9172 27.2837 1.42065 3 
15.7888 27.2836 1.42123 3 
14.3521 25.8472 2.85535 3 
18.6604 27.2838 1.4217 3 
17.224 25.8474 2.85654 3 
20.0961 25.8479 2.85705 3 
21.532 27.2838 1.42171 3 
22.9682 25.8476 2.85656 3 
24.4035 27.2838 1.42127 3 
28.712 25.8476 2.85462 3 
27.2752 27.2839 1.42067 3 
25.8403 25.8475 2.85536 3 
1.4359 1.44432 4.29023 3 
1.43706 1.44445 7.16093 3 
2.87092 2.88012 5.72639 3 
2.87128 0.00797965 5.72578 3 
0.00158493 2.88109 5.72498 3 
0.00253163 0.00849726 5.72384 3 
4.30553 1.44395 4.2911 3 
7.17496 1.44391 4.29109 3 
4.30569 1.44375 7.16234 3 
7.17482 1.44371 7.16229 3 
5.74024 2.87976 5.72693 3 
5.74026 0.00776406 5.72652 3 
10.0446 1.44425 4.29016 3 
10.0435 1.44436 7.16079 3 
8.60959 2.88007 5.7263 3 
11.4789 2.88105 5.72476 3 
8.60923 0.00789962 5.72574 3 
11.4779 0.00836124 5.72373 3 
12.9157 1.44427 4.2901 3 
15.7882 1.4433 4.29181 3 
12.9111 1.44624 7.15753 3 
15.7841 1.44558 7.15887 3 
14.3508 2.88096 5.72515 3 
14.3492 0.00807538 5.72404 3 
18.6606 1.44174 4.29374 3 
18.6598 1.44137 7.16393 3 
17.2245 2.87885 5.72774 3 
20.0963 2.87761 5.72904 3 
17.2227 0.00626303 5.72749 3 
20.0962 0.0042393 5.7301 3 
21.5319 1.4418 4.29377 3 
24.4043 1.44344 4.29192 3 
21.5326 1.4414 7.164 3 
22.968 2.8789 5.72789 3 
24.4084 1.44561 7.15904 3 
22.9697 0.00634766 5.72753 3 
27.2768 1.44441 4.29023 3 
27.2814 1.4463 7.15775 3 
25.8417 2.88105 5.7254 3 
25.8432 0.00819199 5.72415 3 
1.43636 4.31644 7.16178 3 
1.43528 4.3162 4.291 3 
1.43442 7.18733 4.29177 3 
1.43519 7.18734 7.16257 3 
2.87041 5.75171 5.72696 3 
0.00020131 5.75236 5.72627 3 
4.30508 7.18713 4.292 3 
4.30533 4.3158 4.2916 3 
7.17517 4.31577 4.29154 3 
7.17544 7.18711 4.29192 3 
7.17495 4.31556 7.1626 3 
4.30555 4.31561 7.16267 3 
4.30532 7.187 7.16286 3 
5.74025 5.75138 5.72725 3 
7.1752 7.18698 7.16279 3 
10.0452 4.31616 4.29083 3 
10.0442 4.3164 7.16157 3 
10.0461 7.18726 4.29156 3 
8.61009 5.75164 5.72683 3 
10.0453 7.18729 7.16239 3 
11.4803 5.75234 5.72603 3 
12.9166 4.31612 4.29088 3 
15.7892 4.31496 4.29216 3 
12.9178 7.18686 4.29187 3 
15.7897 7.18595 4.29269 3 
12.9134 4.31821 7.15974 3 
15.787 4.31698 7.16128 3 
12.9166 7.18716 7.16249 3 
14.3526 5.7517 5.72675 3 
15.7891 7.18575 7.16389 3 
18.6609 4.3139 4.29319 3 
18.6609 7.18534 4.29326 3 
18.6606 4.31462 7.16381 3 
17.2251 5.75025 5.72825 3 
18.6608 7.18458 7.16513 3 
20.0963 5.7497 5.72888 3 
21.5318 4.31394 4.29326 3 
21.5317 7.18538 4.2933 3 
24.4029 7.18598 4.29288 3 
24.4034 4.31504 4.29233 3 
24.4055 4.31702 7.16154 3 
21.532 4.31463 7.16391 3 
21.5317 7.18461 7.16523 3 
22.9675 5.7503 5.72841 3 
24.4034 7.18575 7.16417 3 
27.2759 4.31616 4.2911 3 
27.2748 7.1869 4.29211 3 
27.2791 4.31823 7.16004 3 
25.84 5.75173 5.72702 3 
27.276 7.18717 7.16277 3 
1.4336 10.0577 4.29225 3 
1.4344 10.0582 7.16262 3 
2.86973 8.62257 5.72738 3 
2.86931 11.493 5.72731 3 
4.30477 10.0578 4.29212 3 
7.1757 10.0578 4.29204 3 
4.30504 10.0579 7.16276 3 
5.74025 8.62246 5.7274 3 
7.17541 10.0579 7.1627 3 
5.74019 11.4929 5.72724 3 
10.0469 10.0577 4.29205 3 
8.61076 8.62252 5.72724 3 
10.046 10.0582 7.16244 3 
11.4819 8.62241 5.72727 3 
8.6111 11.4929 5.72715 3 
11.4825 11.4928 5.72736 3 
12.9185 10.0572 4.29246 3 
15.79 10.0567 4.29301 3 
12.9177 10.0578 7.16277 3 
14.3538 8.62164 5.728 3 
15.7897 10.057 7.16365 3 
14.3542 11.4924 5.72796 3 
18.661 10.0564 4.29336 3 
20.0963 8.62051 5.72925 3 
17.2255 8.62081 5.72886 3 
18.6609 10.0565 7.16434 3 
17.2255 11.4921 5.72851 3 
20.0963 11.4919 5.72878 3 
21.5317 10.0564 4.29344 3 
24.4026 10.0567 4.29319 3 
21.5317 10.0565 7.16442 3 
22.9672 8.62082 5.72902 3 
22.9671 11.4921 5.72867 3 
24.4029 10.057 7.16392 3 
28.7106 8.62248 5.72749 3 
27.274 10.0573 4.29268 3 
28.7099 11.4929 5.72758 3 
25.8387 8.62166 5.72826 3 
27.2748 10.0579 7.16303 3 
25.8383 11.4924 5.72819 3 
1.43334 12.9279 4.29193 3 
1.43394 15.7974 4.29097 3 
1.43379 12.928 7.16279 3 
1.43443 15.7973 7.16221 3 
2.86934 14.3626 5.7269 3 
4.3049 15.7975 4.291 3 
4.30466 12.9279 4.29174 3 
7.17571 12.9279 4.29166 3 
7.17542 15.7975 4.29094 3 
4.30507 15.7974 7.1623 3 
4.30484 12.928 7.16266 3 
7.1755 12.9279 7.16258 3 
5.74016 14.3626 5.72685 3 
7.17521 15.7974 7.16227 3 
10.0471 12.9278 4.29174 3 
10.0464 15.7973 4.29083 3 
10.0465 12.9279 7.1626 3 
8.61098 14.3626 5.72678 3 
10.0459 15.7971 7.1621 3 
11.4824 14.3625 5.72695 3 
12.9187 12.9276 4.29213 3 
15.79 12.9275 4.29259 3 
12.9182 15.7975 4.2912 3 
15.7897 15.7977 4.29167 3 
12.9182 12.9278 7.163 3 
15.7898 12.9276 7.1637 3 
12.9174 15.7972 7.16222 3 
14.3541 14.3626 5.72752 3 
15.7893 15.7977 7.16296 3 
18.6609 12.9274 4.29289 3 
18.6608 15.7979 4.29197 3 
18.6608 12.9275 7.1642 3 
17.2254 14.3627 5.72803 3 
18.6607 15.798 7.16351 3 
20.0963 14.3627 5.72828 3 
21.5317 12.9274 4.29295 3 
21.5317 15.7979 4.29201 3 
24.4025 12.9276 4.29275 3 
24.4027 15.7978 4.29176 3 
21.5317 12.9275 7.16429 3 
21.5317 15.798 7.16355 3 
22.9671 14.3627 5.72815 3 
24.4027 12.9276 7.16389 3 
24.403 15.7978 7.16304 3 
28.71 14.3627 5.72713 3 
27.2738 12.9277 4.29234 3 
27.2742 15.7976 4.29132 3 
27.2742 12.9279 7.16323 3 
25.8383 14.3627 5.72768 3 
27.2749 15.7974 7.16234 3 
1.43553 18.6669 4.28939 3 
1.43651 18.6662 7.16074 3 
2.8703 17.2321 5.72597 3 
2.87143 20.1024 5.72491 3 
0.00260455 20.1003 5.72269 3 
4.30538 18.6677 4.29019 3 
7.17493 18.6676 4.29017 3 
4.30562 18.6675 7.16168 3 
5.74012 17.2324 5.72623 3 
7.17462 18.6674 7.16166 3 
5.74014 20.1032 5.72571 3 
10.0448 18.6667 4.28931 3 
8.60998 17.2319 5.7259 3 
10.0438 18.666 7.16066 3 
11.4809 17.2315 5.72548 3 
8.60885 20.1023 5.72488 3 
11.4777 20.1001 5.72265 3 
12.9168 18.6669 4.28953 3 
15.7891 18.6676 4.29016 3 
12.9147 18.6654 7.1596 3 
14.3532 17.2321 5.7261 3 
15.7883 18.6669 7.1609 3 
14.3514 20.1009 5.72348 3 
18.6606 18.668 4.29051 3 
17.225 17.2327 5.72674 3 
18.6604 18.6676 7.16175 3 
20.0962 17.2329 5.72699 3 
17.2244 20.1021 5.72458 3 
20.0961 20.1025 5.72491 3 
21.5318 18.6681 4.29053 3 
24.4033 18.6678 4.29018 3 
21.5319 18.6677 7.16172 3 
22.9674 17.2328 5.72676 3 
22.9679 20.1022 5.72455 3 
24.404 18.6671 7.16089 3 
27.2755 18.6671 4.28957 3 
28.7114 17.2317 5.72556 3 
25.8392 17.2323 5.72613 3 
27.2776 18.6656 7.15964 3 
25.8409 20.1012 5.72348 3 
1.43666 24.411 4.28886 3 
1.43654 21.5383 4.28863 3 
1.43834 21.5367 7.15909 3 
2.87175 22.9746 5.72471 3 
0.00380012 22.9727 5.72192 3 
1.43824 24.41 7.15916 3 
4.30569 21.5392 4.28991 3 
4.30573 24.4114 4.29012 3 
7.17469 21.5391 4.28992 3 
7.17471 24.4114 4.29013 3 
4.30594 24.4111 7.16137 3 
4.30598 21.5388 7.16122 3 
7.17434 21.5387 7.16122 3 
5.74019 22.9751 5.72569 3 
7.17449 24.4111 7.16137 3 
10.0438 21.5381 4.28862 3 
10.0437 24.4108 4.28885 3 
10.042 21.5365 7.15907 3 
8.60861 22.9745 5.72472 3 
11.4765 22.9725 5.72193 3 
10.0421 24.4098 7.15918 3 
12.9147 21.537 4.28793 3 
15.7883 21.5384 4.28938 3 
12.9142 24.41 4.28832 3 
15.7867 24.4098 4.28975 3 
12.9083 21.5314 7.15393 3 
15.7865 21.5346 7.15706 3 
14.3476 22.9704 5.72104 3 
15.7793 24.4023 7.15339 3 
12.9076 24.4066 7.15385 3 
18.6604 21.5393 4.29006 3 
18.6602 21.5362 7.15861 3 
17.2239 22.9734 5.72442 3 
20.0961 22.9744 5.7251 3 
18.6605 24.4093 7.16074 3 
18.6601 24.4114 4.29144 3 
21.5319 21.5393 4.29007 3 
24.404 21.5386 4.28938 3 
24.4055 24.41 4.28971 3 
21.5322 24.4115 4.29143 3 
21.5321 21.5362 7.15859 3 
22.9683 22.9735 5.72439 3 
24.4058 21.5348 7.15703 3 
21.5318 24.4094 7.16071 3 
24.413 24.4024 7.15338 3 
27.2776 21.5373 4.28794 3 
27.2781 24.4102 4.28834 3 
27.284 21.5316 7.15393 3 
25.8447 22.9706 5.72103 3 
27.2848 24.4069 7.15386 3 
1.43635 27.2839 4.2895 3 
1.43762 27.2836 7.16001 3 
2.87157 25.8474 5.72516 3 
0.00338132 25.8469 5.72272 3 
4.30565 27.2838 4.29059 3 
7.17482 27.2837 4.29058 3 
4.30582 27.2836 7.16184 3 
5.74024 25.8475 5.72604 3 
7.17471 27.2835 7.16185 3 
10.0441 27.2837 4.28945 3 
8.60888 25.8473 5.72515 3 
10.0429 27.2834 7.15999 3 
11.477 25.8467 5.72271 3 
12.9148 27.2835 4.28926 3 
15.7871 27.2828 4.29112 3 
12.9093 27.2835 7.15579 3 
14.3478 25.8453 5.72253 3 
15.781 27.2814 7.15696 3 
18.6595 27.2824 4.29316 3 
17.2212 25.8446 5.72574 3 
18.6558 27.2787 7.16341 3 
20.0962 25.8468 5.72806 3 
21.5328 27.2825 4.29314 3 
24.4053 27.283 4.29113 3 
21.5366 27.2788 7.16342 3 
22.9711 25.8447 5.72571 3 
24.4114 27.2815 7.15702 3 
27.2776 27.2837 4.28934 3 
25.8445 25.8455 5.72257 3 
27.2831 27.2836 7.15587 3 
2.87115 2.87987 8.59805 3 
2.87129 0.00763071 8.59753 3 
1.43684 1.44388 10.0333 3 
2.87096 2.87956 11.4703 3 
0.00388885 0.00828451 8.59491 3 
0.00303943 2.88137 8.59626 3 
0.00262209 2.88007 11.4698 3 
2.8707 0.00731267 11.4699 3 
0.00234957 0.00735425 11.4684 3 
5.74027 2.87946 8.5985 3 
5.74027 0.00748813 8.5982 3 
4.30558 1.44343 10.0342 3 
7.17504 1.44341 10.0342 3 
5.74032 2.87934 11.4704 3 
5.74032 0.00737058 11.4701 3 
8.60942 2.87978 8.59791 3 
11.4776 2.88135 8.596 3 
11.4767 0.00822749 8.59481 3 
8.60995 0.00732103 11.4698 3 
11.4783 0.00734539 11.4684 3 
10.0438 1.44387 10.0332 3 
8.6097 2.87951 11.4702 3 
11.478 2.88006 11.4696 3 
8.60931 0.00757269 8.59747 3 
14.3441 2.88588 8.59149 3 
12.9099 1.44625 10.03 3 
15.7686 1.45799 10.0174 3 
14.346 2.87947 11.4702 3 
14.3399 0.0113078 8.58729 3 
14.3419 0.0099541 11.462 3 
17.2204 2.88334 8.59461 3 
20.0962 2.87938 8.59843 3 
20.0961 0.00296217 11.3679 5 
18.651 1.45287 10.0237 3 
17.223 2.8714 11.4784 3 
20.0962 2.86171 11.4881 3 
17.2153 0.00718607 8.5913 3 
17.1795 0.0397686 11.4204 3 
22.972 2.88334 8.59479 3 
22.9771 0.00724381 8.59141 3 
23.0129 0.0398544 11.4205 3 
21.5414 1.45286 10.0238 3 
22.9695 2.87136 11.4785 3 
24.4239 1.45798 10.0176 3 
25.8484 2.88589 8.59173 3 
25.8526 0.0113088 8.58743 3 
25.8506 0.00993078 11.4621 3 
27.2827 1.44624 10.0302 3 
25.8466 2.87947 11.4704 3 
2.87081 5.75156 8.59835 3 
0.0012319 5.75211 8.59783 3 
1.43667 4.31598 10.0339 3 
1.43638 7.18819 10.0334 3 
2.87119 5.75186 11.47 3 
0.00308439 5.75365 11.4685 3 
5.74028 5.75119 8.59858 3 
4.3056 7.18721 10.0342 3 
4.30563 4.31541 10.0344 3 
7.17498 4.31533 10.0343 3 
7.17499 7.18716 10.0341 3 
5.74032 5.75129 11.4702 3 
8.60971 5.75146 8.5982 3 
11.4794 5.75206 8.59755 3 
10.044 4.31589 10.0337 3 
10.0442 7.18807 10.0332 3 
8.60942 5.75175 11.4698 3 
11.4775 5.7536 11.4683 3 
14.351 5.75155 8.5981 3 
12.9128 4.31649 10.0331 3 
15.7859 4.31434 10.0353 3 
12.9134 7.18989 10.0314 3 
15.7869 7.18838 10.0326 3 
14.3441 5.75819 11.4637 3 
17.2247 5.74889 8.60075 3 
20.0963 5.74766 8.60209 3 
18.661 4.30952 10.0402 3 
18.6605 7.18591 10.035 3 
17.2204 5.75512 11.4663 3 
20.0962 5.7514 11.4703 3 
22.9678 5.74891 8.60096 3 
21.5315 4.30953 10.0403 3 
21.5319 7.18593 10.0351 3 
22.9721 5.75511 11.4665 3 
24.4056 7.18841 10.0328 3 
24.4066 4.31433 10.0355 3 
25.8415 5.75153 8.59838 3 
27.2798 4.3165 10.0334 3 
27.2792 7.18992 10.0317 3 
25.8485 5.75819 11.4639 3 
2.87041 8.62298 8.59819 3 
2.86976 11.4934 8.5983 3 
0.000193217 8.6237 8.59755 3 
1.43527 10.0589 10.0337 3 
2.87097 8.6235 11.4697 3 
2.87015 11.4939 11.4699 3 
0.00163216 8.62494 11.4688 3 
5.74026 8.62261 8.59842 3 
5.74021 11.4932 8.59835 3 
4.30532 10.0583 10.0341 3 
7.17518 10.0583 10.034 3 
5.74028 8.62291 11.47 3 
5.74023 11.4936 11.47 3 
8.6101 8.62292 8.59807 3 
11.4803 8.62364 8.59732 3 
8.61064 11.4933 8.59819 3 
11.4818 11.4933 8.59821 3 
11.4789 8.62488 11.4686 3 
10.0452 10.0589 10.0336 3 
8.60963 8.62342 11.4696 3 
8.61031 11.4938 11.4698 3 
11.4812 11.4939 11.4697 3 
14.3525 8.62291 8.5979 3 
14.3537 11.4928 8.59885 3 
12.9166 10.0588 10.0335 3 
15.7891 10.0575 10.0346 3 
14.3507 8.62449 11.4686 3 
14.3531 11.4932 11.4702 3 
17.2251 8.62145 8.59936 3 
20.0962 8.62092 8.60004 3 
17.2253 11.4922 8.59973 3 
20.0962 11.492 8.60014 3 
18.6607 10.0565 10.0358 3 
17.2244 8.62195 11.4708 3 
20.0962 8.62073 11.4721 3 
17.225 11.4921 11.4713 3 
20.0962 11.4917 11.4719 3 
22.9674 8.62147 8.59957 3 
22.9672 11.4922 8.59989 3 
21.5317 10.0565 10.0359 3 
22.968 8.62197 11.4709 3 
22.9674 11.4922 11.4714 3 
24.4034 10.0575 10.0349 3 
28.7112 11.494 11.4699 3 
28.7106 11.4934 8.59842 3 
25.84 8.62294 8.5982 3 
25.8387 11.4928 8.5991 3 
27.2759 10.0588 10.0338 3 
25.8418 8.62452 11.4689 3 
25.8393 11.4933 11.4704 3 
2.86959 14.3629 8.59834 3 
1.43418 12.9284 10.0342 3 
1.43459 15.7976 10.0342 3 
2.86974 14.3632 11.4702 3 
5.74015 14.3628 8.5983 3 
4.30502 12.9283 10.0342 3 
4.30514 15.7977 10.0342 3 
7.17536 12.9283 10.0341 3 
7.17515 15.7977 10.0341 3 
5.74018 14.3632 11.4702 3 
8.61069 14.3628 8.59824 3 
11.4819 14.3627 8.59832 3 
10.0462 12.9284 10.0341 3 
10.0457 15.7975 10.034 3 
8.6106 14.3632 11.4701 3 
11.4818 14.3632 11.4701 3 
14.3536 14.3628 8.59879 3 
12.9177 12.9282 10.0343 3 
15.7894 12.9278 10.035 3 
12.9171 15.7976 10.0341 3 
15.7888 15.7982 10.0345 3 
14.3534 14.3632 11.4704 3 
17.2251 14.3629 8.59951 3 
20.0962 14.363 8.59986 3 
18.6607 12.9275 10.0357 3 
18.6605 15.7986 10.0351 3 
17.2249 14.3633 11.4708 3 
20.0962 14.3633 11.4712 3 
22.9672 14.363 8.59962 3 
21.5317 12.9275 10.0358 3 
21.5318 15.7987 10.0352 3 
22.9675 14.3633 11.4709 3 
24.4034 15.7983 10.0345 3 
24.4029 12.9278 10.0352 3 
28.7104 14.3629 8.5985 3 
25.8387 14.3629 8.59898 3 
28.7106 14.3633 11.4703 3 
27.2746 12.9283 10.0345 3 
27.2752 15.7978 10.0342 3 
25.8389 14.3633 11.4705 3 
2.87053 17.2321 8.59789 3 
2.87169 20.1023 8.59708 3 
1.43657 18.6665 10.0335 3 
2.87049 17.2326 11.4702 3 
2.87148 20.1028 11.4699 3 
0.00376899 20.0996 8.59513 3 
0.00329881 20.1004 11.4693 3 
5.74012 17.2325 8.59805 3 
5.74014 20.1032 8.59767 3 
4.30563 18.6677 10.0339 3 
7.17465 18.6677 10.0339 3 
5.74015 17.2329 11.4702 3 
5.74016 20.1036 11.47 3 
8.60972 17.232 8.59779 3 
11.4803 17.2316 8.59737 3 
8.6086 20.1022 8.59702 3 
11.4765 20.0994 8.59506 3 
10.0437 18.6664 10.0334 3 
8.6098 17.2324 11.4701 3 
11.4804 17.2321 11.4699 3 
8.60886 20.1027 11.4698 3 
11.4769 20.1002 11.4693 3 
14.3521 17.2321 8.59737 3 
14.3476 20.0986 8.59289 3 
12.9142 18.6659 10.0326 3 
15.7867 18.6673 10.0323 3 
14.352 17.2329 11.4698 3 
14.3477 20.1001 11.4679 3 
17.2246 17.2332 8.59841 3 
20.0961 17.2335 8.59887 3 
17.2239 20.102 8.59586 3 
20.0962 20.1027 8.59676 3 
18.6601 18.6691 10.0339 3 
17.224 17.2342 11.4699 3 
20.0962 17.2347 11.4704 3 
17.2212 20.1033 11.4671 3 
20.0962 20.1057 11.4693 3 
22.9677 17.2333 8.59842 3 
22.9684 20.1021 8.59584 3 
21.5322 18.6691 10.0339 3 
22.9683 17.2343 11.4699 3 
22.9712 20.1034 11.4671 3 
24.4056 18.6674 10.0323 3 
28.712 17.2317 8.59745 3 
25.8401 17.2323 8.5974 3 
25.8447 20.0987 8.59289 3 
28.7119 17.2323 11.47 3 
27.278 18.666 10.0326 3 
25.8402 17.2331 11.4698 3 
25.8446 20.1002 11.4679 3 
2.87198 22.9741 8.59653 3 
0.00630729 22.9702 8.59256 3 
1.43794 24.4093 10.0317 3 
1.4382 21.5368 10.0324 3 
2.87152 22.9745 11.4694 3 
0.00509212 22.971 11.4681 3 
5.74019 22.975 8.59747 3 
7.17473 24.411 10.0335 3 
4.30575 24.411 10.0335 3 
4.3059 21.539 10.0336 3 
7.17447 21.5389 10.0335 3 
5.74023 22.9753 11.4698 3 
8.6084 22.974 8.59653 3 
11.4741 22.97 8.59258 3 
10.0425 24.4092 10.0318 3 
10.0421 21.5367 10.0324 3 
8.60888 22.9744 11.4694 3 
11.4753 22.9709 11.4681 3 
14.3337 22.9578 8.58039 3 
15.7455 24.3717 9.99419 3 
12.9049 24.4027 10.0253 3 
14.3356 22.9607 11.464 3 
15.7793 21.5309 10.0248 3 
12.9075 21.5313 10.0292 3 
17.2244 22.9684 8.59091 3 
20.0962 22.9696 8.59207 3 
18.6605 21.5383 10.0318 3 
18.6708 24.4069 10.0294 3 
17.2083 22.9633 11.455 3 
20.0962 22.979 11.4703 3 
22.968 22.9685 8.59088 3 
24.4468 24.3718 9.99424 3 
21.5319 21.5383 10.0318 3 
22.984 22.9635 11.455 3 
21.5215 24.407 10.0294 3 
24.413 21.531 10.0248 3 
25.8586 22.9581 8.58039 3 
25.8568 22.9608 11.464 3 
27.2847 21.5315 10.0292 3 
27.2875 24.4029 10.0253 3 
2.87156 25.847 8.5969 3 
0.00512994 25.8456 8.5934 3 
0.00345749 25.8447 11.4672 3 
2.8709 25.8469 11.4694 3 
1.43701 27.283 10.0325 3 
5.74026 25.8473 8.59778 3 
5.7403 25.8473 11.4698 3 
4.30558 27.2833 10.0338 3 
7.17501 27.2833 10.0338 3 
8.60893 25.8469 8.59689 3 
11.4753 25.8455 8.59338 3 
10.0436 27.2829 10.0325 3 
8.60963 25.8468 11.4694 3 
11.4771 25.8446 11.4672 3 
14.3356 25.8415 8.58319 3 
15.7573 27.2823 10.0082 3 
14.3363 25.8347 11.4572 3 
12.9084 27.282 10.0278 3 
20.0962 28.7101 8.59824 3 
17.2083 25.8325 8.58586 3 
20.0962 25.8478 8.60151 3 
17.1211 25.7501 11.3727 3 
20.0961 25.8993 11.5219 5 
18.6295 27.2612 10.0247 3 
22.984 25.8326 8.5859 3 
24.4351 27.2823 10.0083 3 
23.0712 25.7502 11.3727 3 
21.5628 27.2613 10.0248 3 
25.8567 25.8416 8.58324 3 
25.856 25.8348 11.4573 3 
27.2841 27.2821 10.0279 3 
1.43609 1.44358 12.9062 3 
2.87075 2.87989 14.3424 3 
1.43589 1.44433 15.7789 3 
0.00237059 2.88135 14.3424 3 
2.87041 0.00760602 14.3421 3 
0.00109958 0.00762291 14.3422 3 
4.30542 1.44345 12.9063 3 
7.17522 1.44345 12.9062 3 
5.74031 0.00760851 14.3421 3 
5.74033 2.87959 14.3423 3 
4.30541 1.44381 15.7783 3 
7.17525 1.44381 15.7783 3 
10.0446 1.4436 12.9061 3 
11.4783 2.88138 14.3424 3 
8.6099 2.8799 14.3424 3 
10.0447 1.44436 15.7788 3 
8.61022 0.00762082 14.3421 3 
11.4795 0.00762798 14.3421 3 
12.9124 1.44354 12.9062 3 
15.7801 1.43793 12.9118 3 
14.3486 0.00763222 14.3421 3 
12.9117 1.44648 15.7809 3 
15.7536 1.45362 15.7881 3 
14.3419 2.88777 14.3397 3 
18.6738 1.40642 12.9434 5 
18.2585 1.59384 15.9283 5 
20.0961 0.756746 15.0913 5 
20.0962 2.98201 14.3468 5 
17.1795 2.92942 14.31 3 
17.2621 0.00763368 14.3422 5 
21.5186 1.40637 12.9435 5 
24.4124 1.43794 12.9119 3 
21.9338 1.59376 15.9283 5 
24.4389 1.45362 15.7881 3 
23.0129 2.92938 14.31 3 
22.9304 0.00765428 14.3422 5 
27.2802 1.44354 12.9062 3 
27.2809 1.44645 15.781 3 
25.8507 2.88773 14.3398 3 
25.8439 0.00763808 14.3422 3 
1.43689 4.3165 12.9059 3 
1.43713 7.18895 12.9054 3 
2.87139 5.75228 14.3422 3 
1.43711 4.31728 15.7788 3 
1.43777 7.18974 15.7783 3 
0.00399276 5.7549 14.3416 3 
4.30564 4.31554 12.9063 3 
7.17504 4.31552 12.9062 3 
4.30578 7.18752 12.906 3 
7.17488 7.18749 12.9059 3 
5.74037 5.7516 14.3422 3 
4.3057 4.31595 15.7784 3 
4.30596 7.18793 15.7782 3 
7.175 4.31592 15.7784 3 
7.17478 7.18796 15.7782 3 
10.0438 4.31648 12.9058 3 
10.0435 7.18884 12.9053 3 
8.60929 5.75224 14.3421 3 
10.0436 4.31725 15.7788 3 
10.0429 7.18971 15.7782 3 
11.4766 5.75487 14.3414 3 
12.9099 4.31971 12.9034 3 
15.7686 4.33235 12.8917 3 
12.9111 7.1921 12.9034 3 
15.784 7.19085 12.9041 3 
14.3399 5.76247 14.3384 3 
15.7573 4.3416 15.7794 3 
12.9084 4.32194 15.7797 3 
12.9094 7.19391 15.7782 3 
15.781 7.19283 15.7803 3 
18.651 4.32616 12.8969 3 
18.6598 7.18581 12.9083 3 
18.6295 4.32512 15.8005 3 
18.6558 7.18638 15.783 3 
20.0962 5.7516 14.3516 3 
17.2153 5.7585 14.3425 3 
24.4239 4.33232 12.8918 3 
21.5414 4.32614 12.8969 3 
21.5326 7.18583 12.9083 3 
24.4084 7.19082 12.9042 3 
21.5629 4.32511 15.8005 3 
21.5366 7.18637 15.783 3 
24.4115 7.19276 15.7803 3 
24.4352 4.34156 15.7795 3 
22.9771 5.75847 14.3425 3 
27.2827 4.31971 12.9036 3 
27.2815 7.19212 12.9036 3 
25.8527 5.76243 14.3385 3 
27.2842 4.32191 15.7797 3 
27.2833 7.1939 15.7783 3 
1.43594 10.0596 12.9056 3 
2.87045 11.4944 14.3419 3 
2.87138 8.62402 14.3419 3 
1.43642 10.0603 15.778 3 
0.00263756 8.62596 14.3414 3 
4.30556 10.0587 12.9059 3 
7.17503 10.0587 12.9058 3 
5.74032 8.6233 14.342 3 
5.74026 11.494 14.342 3 
4.30573 10.0592 15.7781 3 
7.17493 10.0592 15.778 3 
10.0447 10.0596 12.9054 3 
11.478 8.62591 14.3413 3 
11.4808 11.4945 14.3418 3 
8.61008 11.4943 14.3418 3 
8.60931 8.62398 14.3417 3 
10.0442 10.0602 15.7779 3 
12.9157 10.0596 12.9054 3 
15.7881 10.0579 12.9063 3 
14.3492 8.62566 14.3416 3 
14.3526 11.4936 14.3421 3 
12.9149 10.0604 15.7782 3 
15.7872 10.0586 15.7788 3 
18.6605 10.056 12.9079 3 
17.2227 8.62226 14.3434 3 
20.0962 11.4917 14.3432 3 
17.2244 11.4924 14.3427 3 
18.6596 10.0566 15.7793 3 
20.0962 8.61965 14.3455 3 
21.5319 10.056 12.908 3 
24.4043 10.0579 12.9064 3 
22.968 11.4924 14.3428 3 
21.5329 10.0566 15.7793 3 
24.4054 10.0586 15.7789 3 
22.9698 8.62224 14.3435 3 
28.7117 11.4946 14.3419 3 
27.2769 10.0596 12.9056 3 
25.8399 11.4937 14.3422 3 
25.8433 8.62564 14.3417 3 
27.2777 10.0604 15.7783 3 
1.43447 12.9289 12.906 3 
1.43457 15.7981 12.9063 3 
1.43467 12.9294 15.7781 3 
1.43446 15.7986 15.7783 3 
2.86981 14.3637 14.3422 3 
4.30512 15.7987 15.7783 3 
4.30513 12.9287 12.906 3 
4.30515 15.7982 12.9063 3 
7.17529 12.9287 12.906 3 
7.17519 15.7981 12.9062 3 
5.74021 14.3637 14.3422 3 
4.30523 12.9292 15.7781 3 
7.17526 12.9292 15.7781 3 
7.17525 15.7986 15.7783 3 
10.046 12.9288 12.9059 3 
10.0458 15.798 12.9062 3 
8.61059 14.3637 14.3422 3 
11.4817 14.3636 14.3421 3 
10.0458 12.9293 15.778 3 
10.0459 15.7985 15.7783 3 
12.9174 12.9286 12.906 3 
15.7891 12.928 12.9064 3 
12.9172 15.7982 12.9061 3 
15.7888 15.7988 12.9061 3 
12.9172 12.929 15.778 3 
15.7889 12.9285 15.778 3 
12.9174 15.7986 15.7781 3 
15.7891 15.7992 15.7776 3 
14.3533 14.3636 14.342 3 
18.6606 12.9276 12.907 3 
18.6604 15.7993 12.9062 3 
20.0962 14.3636 14.342 3 
18.6604 12.928 15.7779 3 
18.6606 15.7996 15.7771 3 
17.2248 14.3636 14.342 3 
21.5318 12.9276 12.9071 3 
21.532 15.7993 12.9062 3 
24.4035 15.7989 12.9062 3 
24.4033 12.9281 12.9066 3 
21.5321 12.928 15.7779 3 
21.5319 15.7997 15.7771 3 
24.4036 12.9285 15.778 3 
24.4033 15.7993 15.7777 3 
22.9676 14.3637 14.3421 3 
27.275 12.9287 12.9062 3 
27.2751 15.7983 12.9062 3 
25.839 14.3637 14.3421 3 
28.7107 14.3637 14.3422 3 
27.2752 12.9291 15.7781 3 
27.275 15.7987 15.7781 3 
1.43624 18.6672 12.9064 3 
2.87116 20.1034 14.3425 3 
1.43578 18.6678 15.7788 3 
2.87034 17.2331 14.3424 3 
0.00244684 20.1015 14.343 3 
4.30553 18.6682 12.9063 3 
7.17476 18.6682 12.9062 3 
5.74016 20.1041 14.3423 3 
4.3054 18.6687 15.7784 3 
7.17489 18.6687 15.7784 3 
5.74014 17.2334 14.3423 3 
10.044 18.667 12.9063 3 
8.60915 20.1033 14.3425 3 
10.0445 18.6677 15.7788 3 
8.60997 17.233 14.3424 3 
11.4778 20.1013 14.343 3 
11.4807 17.2327 14.3424 3 
12.9148 18.6668 12.9061 3 
15.787 18.6686 12.9054 3 
12.9156 18.6676 15.7789 3 
15.7882 18.6693 15.7778 3 
14.3525 17.2335 14.3421 3 
14.3491 20.1015 14.3427 3 
17.2244 17.2349 14.3414 3 
18.6595 18.6707 12.9049 3 
20.0962 20.1077 14.3387 3 
20.0962 17.2356 14.3409 3 
18.6605 18.6712 15.7762 3 
17.2227 20.105 14.3408 3 
22.9698 20.1051 14.3408 3 
21.5328 18.6708 12.9049 3 
24.4053 18.6688 12.9054 3 
22.968 17.235 14.3415 3 
21.5319 18.6713 15.7762 3 
24.4043 18.6695 15.7779 3 
28.7116 17.2329 14.3425 3 
25.8432 20.1017 14.3427 3 
25.8398 17.2337 14.3421 3 
27.2775 18.667 12.9061 3 
27.2767 18.6678 15.7789 3 
1.43697 24.41 12.9055 3 
1.43753 21.5376 12.9061 3 
2.87123 22.9751 14.3422 3 
1.43695 21.5385 15.779 3 
1.43678 24.4108 15.7785 3 
0.00383123 22.9725 14.3428 3 
5.74022 22.9757 14.342 3 
7.17494 24.4113 12.9058 3 
4.30575 21.5394 12.906 3 
4.30555 24.4114 12.9058 3 
7.17463 21.5393 12.906 3 
4.30561 21.5399 15.7783 3 
7.17472 21.5398 15.7783 3 
4.30555 24.4118 15.778 3 
7.17491 24.4117 15.778 3 
10.0435 24.41 12.9055 3 
10.0428 21.5375 12.9061 3 
10.0434 21.5384 15.7789 3 
11.4765 22.9724 14.3428 3 
10.0436 24.4108 15.7784 3 
8.60916 22.975 14.3421 3 
15.7572 24.3857 12.9048 3 
12.9092 21.5333 12.9061 3 
15.7809 21.5345 12.904 3 
12.911 21.5351 15.7808 3 
15.7841 21.5364 15.7801 3 
12.9098 24.4075 15.7808 3 
15.7685 24.3949 15.7925 3 
14.3398 22.9648 14.3458 3 
12.9083 24.4053 12.9046 3 
18.6295 24.4021 12.8838 3 
18.6558 21.5409 12.9012 3 
18.6598 21.5414 15.7759 3 
18.651 24.4011 15.7874 3 
17.2153 22.9688 14.3417 3 
20.0962 22.9757 14.3327 3 
21.5366 21.541 12.9012 3 
21.5628 24.4022 12.8838 3 
24.4115 21.5346 12.9039 3 
24.4351 24.3858 12.9048 3 
21.5327 21.5415 15.7759 3 
24.4084 21.5365 15.7802 3 
24.4239 24.395 15.7925 3 
21.5414 24.4012 15.7874 3 
22.9771 22.9689 14.3417 3 
25.8526 22.965 14.3459 3 
27.2831 21.5335 12.9061 3 
27.2841 24.4054 12.9046 3 
27.2813 21.5353 15.7809 3 
27.2826 24.4076 15.7808 3 
1.43583 27.2829 12.9054 3 
1.43606 27.2837 15.7781 3 
2.87067 25.8474 14.3419 3 
0.00230635 25.8459 14.3419 3 
4.30534 27.2834 12.9059 3 
7.17526 27.2834 12.9059 3 
4.3054 27.2838 15.778 3 
7.17515 27.2838 15.7779 3 
5.74028 25.8477 14.3419 3 
10.0447 27.2829 12.9054 3 
8.60982 25.8473 14.3418 3 
10.0445 27.2837 15.7781 3 
11.4782 25.8459 14.3419 3 
12.9117 27.2808 12.9033 3 
15.7536 27.2736 12.8962 3 
14.3419 25.8395 14.3445 3 
12.9124 27.2837 15.778 3 
15.7801 27.2893 15.7724 3 
20.0962 27.9704 13.5931 5 
18.2585 27.1334 12.7561 5 
20.0962 25.7453 14.3375 5 
18.6738 27.3209 15.741 5 
17.1794 25.7978 14.3744 3 
21.9336 27.1336 12.7562 5 
24.4388 27.2737 12.8962 3 
21.5186 27.3209 15.7409 5 
24.4123 27.2893 15.7725 3 
23.0129 25.7979 14.3744 3 
27.2809 27.2808 12.9033 3 
27.2802 27.2837 15.7781 3 
25.8506 25.8396 14.3445 3 
1.43712 1.44434 18.6518 3 
2.87105 2.8804 17.2148 3 
0.0035662 2.88261 17.2171 3 
0.002344 0.00789873 17.2159 3 
2.87175 2.88037 20.0873 3 