ITEM: TIMESTEP
91000
ITEM: NUMBER OF ATOMS
2001
ITEM: BOX BOUNDS pp pp pp
0.0000000000000000e+00 2.8712000000000000e+01
0.0000000000000000e+00 2.8712000000000000e+01
0.0000000000000000e+00 2.8712000000000000e+01
ITEM: ATOMS x y z 
1.48413 1.50657 1.40866 
3.06615 2.69077 2.92376 
0.121736 2.8734 2.83531 
2.97463 2.95084 0.0419544 
4.32394 1.55106 1.42171 
7.09968 1.53515 1.43063 
5.72877 2.9544 2.90119 
9.96603 1.50087 1.48607 
8.50097 2.89839 2.80505 
11.3631 2.82319 2.81428 
8.45292 0.125115 2.83356 
11.6052 0.190994 0.0412456 
13.0431 1.35447 1.40278 
15.6756 1.40589 1.23091 
14.2317 2.81898 3.04944 
14.2352 2.88493 0.0969523 
14.4121 0.0617575 2.72445 
18.5163 1.47744 1.25319 
17.1006 2.84351 2.771 
20.1516 2.8942 2.99204 
20.0921 0.040738 2.83561 
17.2918 0.26436 2.76878 
22.9055 2.80583 2.88878 
24.3523 1.50205 1.55919 
21.4987 1.50173 1.53162 
22.6509 2.9234 0.0586028 
22.8557 0.161094 0.0424054 
27.3074 1.29136 1.36243 
25.9571 2.90693 2.81967 
25.8328 0.189409 2.8167 
25.8629 2.86629 0.134931 
25.6878 0.0533471 0.062988 
1.46438 4.32792 1.46274 
1.43459 7.13057 1.62899 
2.89763 5.6668 2.87802 
0.186079 5.72986 0.0150126 
4.2344 4.14378 1.42702 
4.33342 6.9446 1.48737 
7.19421 4.35205 1.27629 
7.16542 7.11864 1.44203 
5.74237 5.8705 2.86457 
5.83829 5.6739 0.0339631 
10.0843 4.11785 1.36559 
10.1363 7.03327 1.47301 
8.63424 5.56104 2.82527 
11.5937 5.59984 2.87806 
8.68973 5.64625 0.00895739 
15.6513 4.28109 1.46871 
12.9568 4.27098 1.42265 
12.8799 7.16066 1.50618 
15.5494 7.03334 1.54345 
14.3449 5.63809 2.86506 
14.409 5.71957 0.0385063 
18.5071 4.31131 1.41518 
18.3826 7.04082 1.63596 
17.1304 5.67508 3.02594 
20.1996 5.75248 2.79688 
19.9904 5.90351 0.229083 
21.5237 4.29445 1.35429 
21.7203 6.99593 1.34084 
22.8838 5.74427 2.92551 
24.5243 7.01491 1.32012 
24.4241 4.24468 1.52575 
28.6102 5.69066 2.68576 
27.4007 4.24495 1.42499 
27.234 7.05651 1.44969 
25.835 5.5583 2.92557 
1.60128 9.96607 1.59727 
3.09666 8.57856 2.7673 
2.77019 11.5611 2.87204 
0.266159 8.70148 0.130222 
3.1308 8.53743 0.0318098 
0.138093 11.3803 2.98935 
0.0450364 8.54774 2.92797 
2.89661 11.3496 0.0183554 
4.3372 10.2189 1.63882 
7.11895 9.89191 1.64366 
5.6771 8.60517 2.93703 
5.83754 11.4643 3.0822 
5.71119 8.70305 0.291768 
5.81266 11.2551 0.0207904 
10.2015 10.0657 1.69 
8.65267 8.48779 2.80732 
11.4092 8.47936 2.88818 
8.73809 11.439 2.98903 
11.6845 11.5154 2.88696 
8.61071 8.3954 0.126375 
11.4925 8.57793 0.00143837 
8.6259 11.2958 0.265629 
11.5679 11.357 0.0573925 
13.0079 10.1489 1.52264 
15.8699 9.96031 1.35455 
14.4313 8.58067 2.86731 
14.3966 11.608 2.79335 
18.5844 9.9464 1.52438 
17.0277 8.46399 2.99743 
20.0779 8.62932 2.84603 
17.3237 11.7322 2.82679 
20.1912 11.4351 2.82606 
17.2254 8.57124 0.0486008 
17.2441 11.5801 0.0404319 
20.0459 11.5447 0.12212 
21.683 10.0863 1.36564 
22.9551 8.5377 2.65549 
23.0087 11.472 2.76147 
24.5804 9.97666 1.28293 
27.2927 10.0591 1.38182 
25.9478 8.57468 3.04003 
25.7641 11.5819 2.93744 
28.6908 11.6067 0.194593 
1.44544 12.9829 1.30752 
1.44051 15.8489 1.48721 
2.90464 14.1608 2.71076 
0.128438 14.3901 2.81282 
3.03454 14.2571 0.0886775 
0.0154235 14.5483 0.107353 
4.25409 15.8528 1.43347 
4.58293 12.706 1.43384 
7.31636 12.7266 1.36687 
7.03511 15.7902 1.45767 
5.70474 14.2477 2.88959 
5.95053 14.2501 0.166997 
10.2103 12.8665 1.50638 
10.1785 15.724 1.48387 
8.53544 14.3423 2.79107 
11.6037 14.2176 2.79338 
11.5374 14.4111 0.0947124 
8.83061 14.4305 0.0466501 
14.4273 14.4838 0.0605107 
13.0855 12.9508 1.55362 
15.9014 12.9967 1.38647 
12.864 16.0015 1.59474 
15.9135 16.0076 1.35288 
14.3758 14.5583 2.86306 
20.2989 14.3412 0.0858897 
18.741 12.8763 1.39591 
18.8194 15.8113 1.36781 
17.2788 14.5031 2.87318 
20.0531 14.2326 2.7643 
21.6281 12.8684 1.21304 
21.5304 15.9176 1.38364 
22.9852 14.1917 2.78719 
24.4418 15.9751 1.40971 
24.499 13.0612 1.29542 
27.2501 12.9068 1.46374 
27.2413 15.8552 1.40546 
25.753 14.3897 2.89708 
26.1466 14.5263 0.0497386 
1.21656 18.6757 1.36265 
2.78898 17.1871 2.95589 
2.60162 20.154 2.70701 
2.7222 19.9898 0.00251663 
2.89525 17.287 0.00808584 
4.04767 18.5545 1.45008 
7.20956 18.5473 1.30946 
5.64913 17.208 2.91469 
5.44866 19.8356 2.77443 
5.6885 20.0496 0.077718 
10.0278 18.7632 1.48925 
8.51973 17.1629 2.68655 
11.4756 17.301 3.00501 
8.42258 19.9326 2.92435 
11.2583 19.9308 3.03684 
8.68151 19.8643 0.0248232 
11.3668 17.2477 0.118474 
12.8397 18.7497 1.68687 
15.9303 18.7499 1.43481 
14.3545 17.4266 2.92509 
14.2449 20.1486 2.90777 
14.1193 20.116 0.122874 
14.2906 17.4322 0.269128 
18.8737 18.8535 1.76286 
17.4041 17.2797 2.75393 
20.0276 17.3435 2.8961 
17.1925 20.1397 3.12624 
20.1763 20.347 3.05328 
20.268 20.0511 0.17306 
20.2654 17.3823 0.0385082 
17.3489 17.305 0.0749737 
23.1369 17.5888 0.0660884 
21.6422 18.8115 1.58203 
24.5916 19.0595 1.33681 
22.9759 17.1302 2.84449 
23.0299 20.3123 2.78467 
28.4936 20.1824 2.83764 
28.655 17.2759 2.69166 
27.1079 18.8357 1.42654 
25.7998 17.2625 2.80521 
26.0048 20.1853 2.98851 
28.5141 17.2666 0.182762 
28.4918 20.185 0.0609758 
1.11826 21.6492 1.33226 
2.75742 22.8954 2.55495 
1.65904 24.4527 1.20667 
0.0483243 23.1076 2.87149 
4.16094 21.3302 1.44802 
7.1667 21.439 1.40992 
5.48685 23.0231 2.70105 
7.12431 24.2388 1.59947 
4.33302 24.4112 1.3633 
9.96765 21.3807 1.25618 
8.74404 22.8834 2.70757 
11.4237 22.7414 2.7831 
9.97064 24.5277 4.08456 
10.1365 24.332 1.28337 
12.7592 21.3729 1.50524 
15.7883 21.4274 1.53346 
14.1714 23.0201 3.01292 
15.698 24.4727 1.58582 
12.77 24.4148 1.37221 
14.3897 22.7781 0.116037 
18.5674 21.3772 1.59064 
17.275 22.8734 2.99643 
20.055 23.0542 2.88524 
18.7374 24.4361 1.37848 
17.1228 22.9349 0.0454279 
21.4373 21.7249 1.36235 
24.3694 21.6724 1.42949 
22.9086 22.995 3.2107 
21.5434 24.5515 1.35236 
22.897 22.9104 0.0205653 
24.3259 24.4437 1.47501 
27.3105 21.7676 1.46491 
25.7883 22.9781 2.88129 
27.3841 24.5275 1.39755 
25.7469 23.0698 0.205566 
0.0664264 28.6618 2.69996 
3.02645 28.5618 2.67689 
1.6457 27.0904 1.3959 
3.028 25.8211 2.63476 
0.0292736 25.9654 2.74124 
5.61417 28.6269 2.73408 
4.25327 27.2551 1.08477 
7.14791 27.4269 1.27558 
5.75777 25.751 2.82793 
11.3269 28.6788 2.76001 
10.0156 27.3677 1.39867 
8.49797 25.8943 2.73078 
11.3857 25.7443 2.54731 
8.5364 25.7276 0.105781 
12.8608 27.2388 1.2841 
15.8778 27.2774 1.42233 
12.8868 27.3302 3.97492 
14.2865 25.8722 2.78814 
18.5766 27.6297 1.42792 
17.3354 25.741 2.93824 
20.1188 25.9873 2.78349 
17.1605 25.7614 0.0952209 
22.9707 28.6092 2.83465 
21.4326 27.3234 1.24614 
23.0013 25.9361 2.8013 
24.2911 27.3734 1.3118 
27.2939 27.3615 1.29017 
25.8184 26.0002 2.98234 
25.8245 25.8826 0.122876 
1.65257 1.50755 4.1381 
1.58398 1.3182 6.99176 
2.96013 2.90671 5.65629 
0.0642185 3.075 5.66324 
4.40512 1.31349 4.24563 
7.23569 1.51531 4.29898 
4.35964 1.58794 7.20975 
7.06926 1.36647 7.36661 
5.6988 2.85268 5.78656 
5.49869 0.0017317 5.70971 
9.9268 1.6232 4.24264 
9.75234 1.49205 7.00061 
8.34379 2.86376 5.64318 
11.4911 2.88452 5.68099 
11.3019 0.144213 5.85547 
10.0143 4.02896 7.2053 
12.8938 1.3934 4.33069 
15.7501 1.36728 4.27497 
12.9799 1.55951 7.28801 
15.7536 1.3896 7.22845 
14.4602 2.78747 5.68471 
12.9087 4.0285 7.12269 
14.252 0.150381 5.62687 
18.5352 1.48343 4.35061 
18.5859 1.4462 7.04617 
17.1535 2.93443 5.71608 
20.2389 2.7877 5.8541 
21.5518 1.37576 4.24809 
24.3749 1.33922 4.18077 
21.5068 1.36751 7.18288 
23.1629 2.83994 5.68478 
24.3467 1.3263 7.25613 
27.3467 1.48811 4.35384 
27.4067 1.50711 6.95323 
25.817 2.82571 5.746 
28.6966 0.0954307 5.45238 
25.8377 0.043106 5.67596 
1.50442 4.36863 4.19421 
1.42461 7.36886 4.28286 
1.53665 4.48468 6.93784 
1.29852 6.86741 7.11314 
2.76055 5.80826 5.63671 
0.0184593 5.8119 5.52936 
4.2464 7.27625 4.23789 
4.32308 4.28847 4.28143 
7.00506 4.2796 4.30811 
7.15371 7.28248 4.2579 
6.91775 4.25219 7.35084 
4.41318 4.36559 7.18803 
4.61007 7.04793 7.22783 
5.85525 5.70616 5.74921 
7.14551 7.16744 7.11268 
10.0703 4.32888 4.39039 
9.99399 6.84717 4.4864 
8.49119 5.55654 5.76067 
9.86575 6.84121 7.24635 
11.4666 5.5088 5.87714 
12.7985 4.31913 4.36098 
15.781 4.34283 4.27602 
12.6963 7.03376 4.25859 
15.562 7.12201 4.51843 
15.6151 4.25426 7.2096 
12.8236 7.00729 7.22034 
14.255 5.58066 5.74344 
15.6133 7.35481 7.30214 
18.5434 4.40207 4.14222 
18.7141 7.23822 4.45374 
18.555 4.36212 7.14174 
17.1893 5.74036 5.89897 
18.6052 7.27497 7.16467 
20.1349 5.68668 5.65636 
21.5591 4.33582 4.36284 
21.5512 7.35842 4.3331 
24.4851 7.21378 4.22578 
24.4564 4.28186 4.28729 
24.4136 4.35721 7.16947 
21.4264 4.45615 7.18205 
21.5497 7.36589 7.04102 
22.9104 5.82359 5.6577 
24.4974 7.16493 7.07832 
27.2635 4.39442 4.24878 
27.2765 7.058 4.296 
27.3522 4.3244 6.96417 
25.8236 5.69361 5.6914 
27.3404 7.16893 7.0287 
1.54767 10.0071 4.37318 
1.45255 10.1897 7.23271 
2.91753 8.44146 5.86773 
2.90756 11.5297 5.71191 
0.0177712 8.54731 5.81099 
0.067228 11.3776 5.78281 
4.45336 10.2215 4.48942 
7.26676 9.95657 4.41539 
4.26577 10.1235 7.22612 
5.77154 8.67563 5.88092 
7.17367 10.017 7.34558 
5.76786 11.5622 5.87744 
10.0104 9.98442 4.4497 
8.70992 8.54244 5.69645 
9.99204 10.0551 7.10217 
11.2507 8.41993 5.75751 
8.61139 11.3756 5.76232 
11.3186 11.6493 5.65341 
12.8253 10.0547 4.46284 
15.7702 10.0397 4.38323 
12.7605 10.1564 7.04066 
14.1246 8.39708 5.70474 
15.6349 10.083 7.07243 
14.2588 11.7029 5.69599 
18.7151 9.97325 4.28897 
20.0625 8.66305 5.82013 
17.0549 8.53152 5.65352 
18.5403 10.1417 7.13123 
17.1991 11.504 5.663 
20.2467 11.4663 5.74934 
21.3653 9.96384 4.21623 
24.5969 10.1253 4.30823 
21.7086 9.99811 7.13786 
22.9732 8.80154 5.67019 
22.9533 11.3219 5.69015 
24.3812 10.2009 7.31876 
27.2395 10.0382 4.37199 
25.9003 8.63448 5.90758 
27.3181 10.1469 7.35354 
25.7535 11.3433 5.7073 
1.48036 13.0481 4.39663 
1.28829 15.748 4.3204 
1.48842 13.0043 6.99048 
1.21226 15.8632 7.27551 
2.76798 14.5618 5.91859 
4.22517 15.7092 4.24675 
4.22485 12.9266 4.47635 
7.23942 13.1029 4.26462 
6.85292 15.834 4.44953 
4.31768 16.0797 7.25163 
4.26053 13.079 7.34955 
7.33668 12.9761 7.22687 
5.71613 14.4313 5.77254 
7.08683 15.9678 7.03556 
10.0785 13.126 4.29133 
9.94146 15.7447 4.22431 
10.0547 12.8002 7.20456 
8.57125 14.2056 5.7567 
9.84382 16.0098 7.27192 
11.2588 14.4677 5.84698 
13.0124 13.1636 4.31675 
15.8533 13.112 4.1697 
12.7106 15.7207 4.27581 
15.8029 15.9288 4.33869 
12.7989 13.0842 7.11088 
15.8342 12.9574 7.0332 
12.9118 15.7735 7.22789 
14.4749 14.4657 5.63932 
15.6922 15.825 7.24495 
18.7884 12.8771 4.40301 
18.7452 15.7723 4.32327 
18.6863 12.8961 7.02148 
17.2434 14.4969 5.62287 
18.6669 15.8382 7.17005 
20.1221 14.3106 5.78849 
21.4844 12.9197 4.3349 
21.5189 15.6713 4.21977 
24.468 12.8786 4.28804 
24.306 15.7902 4.17736 
21.5781 12.8736 7.14496 
21.583 15.9744 7.29765 
22.8698 14.2443 5.73165 
24.4868 12.7739 7.04463 
24.2833 15.7338 7.23589 
27.181 12.847 4.29264 
27.4023 15.9298 4.13355 
28.4594 14.2132 5.58473 
27.3695 12.8921 7.15047 
25.884 14.3065 5.67847 
27.1798 15.8944 7.16964 
1.33981 18.6693 4.32718 
1.40856 18.638 7.15545 
2.8933 17.117 5.73256 
2.58111 20.2775 5.64444 
4.07059 18.8703 7.04035 
4.22374 18.8114 4.33168 
7.11201 18.6183 4.3094 
5.64771 17.1882 5.786 
6.97907 18.698 7.02656 
5.66117 20.2195 5.56243 
9.8648 18.7274 4.31065 
8.55186 17.2447 5.53852 
10.0382 18.7359 7.09307 
11.484 17.3902 5.83405 
8.46204 20.1841 5.98999 
11.5 20.2226 5.74028 
12.8813 18.694 4.4421 
15.7877 18.6329 4.43411 
12.752 18.577 7.20345 
14.3984 17.2289 5.8079 
15.78 18.6235 7.26232 
14.333 20.1491 5.85392 
18.6647 18.7603 4.47995 
17.2764 17.0947 5.74919 
18.8241 18.5502 7.16594 
20.3351 17.2522 5.73349 
17.1491 20.0408 5.89191 
20.1791 19.9941 5.84237 
21.6248 18.5755 4.28551 
24.2229 18.7839 4.21948 
21.6038 18.7774 7.22051 
23.2209 17.3054 5.7705 
22.9073 20.3212 5.69769 
24.3839 18.7233 7.33375 
27.1592 18.635 4.41613 
28.5463 20.0471 5.66332 
28.5245 17.1863 5.84755 
25.7479 17.2661 5.88024 
27.0504 18.6831 7.11279 
25.6553 20.0918 5.75873 
1.24676 21.5519 4.12277 
1.56156 24.4747 4.14446 
4.08948 21.581 4.29766 
1.18914 21.4019 7.12476 
2.7102 22.9365 5.60462 
0.0413355 23.1815 5.70932 
1.33929 24.4027 7.25271 
4.15508 24.2325 4.24382 
7.15019 21.5714 4.23458 
7.11281 24.4792 4.56593 
4.20604 24.2182 7.18807 
4.13127 21.467 7.1962 
7.08687 21.5078 7.16051 
5.55579 22.9527 5.85389 
7.24036 24.4666 6.92586 
9.91076 21.4015 4.30399 
10.2523 21.6256 7.11844 
8.49978 22.8891 5.66838 
11.3373 22.9982 5.66174 
9.90967 24.3892 6.98292 
12.7667 21.4697 4.33965 
15.804 21.4615 4.50288 
12.6901 24.5838 4.35029 
15.7757 24.435 4.18376 
12.9603 21.6712 7.23443 
15.7049 21.5132 7.1505 
14.2019 23.1029 5.66599 
15.7595 24.3018 7.1547 
18.5767 21.5632 4.4082 
18.7014 24.5591 4.37443 
18.5622 21.5958 7.0862 
17.1041 23.06 5.66072 
20.1388 22.9601 5.63713 
18.7586 24.3941 7.07051 
21.5417 21.6029 4.34776 
24.2959 21.5714 4.32845 
24.5823 24.5078 4.33188 
21.5117 21.5462 7.25778 
22.9804 23.2247 5.8108 
24.346 21.8205 7.18791 
21.605 24.4108 7.26636 
24.4181 24.3657 7.215 
27.3237 21.8488 4.31239 
27.2824 24.5034 4.26134 
27.2438 21.6806 6.97943 
25.8221 23.0428 5.60065 
27.2016 24.5145 7.32378 
1.58211 27.2908 4.19437 
2.97842 28.5841 5.65267 
1.55406 27.2099 6.99099 
2.82078 25.684 5.84422 
0.0787032 25.863 5.6822 
4.28563 27.2022 4.19282 
7.13181 27.4404 4.27823 
4.31491 27.2835 7.18514 
5.52467 25.786 5.72585 
7.16703 27.308 7.30202 
10.0488 27.481 4.18079 
8.44272 28.6656 5.7554 
8.63261 25.9313 5.57468 
9.92106 27.3102 7.13413 
11.3464 25.8776 5.53326 
15.7661 27.2285 4.29128 
12.9132 24.6773 7.01075 
12.7164 27.3931 7.00399 
14.3007 25.9094 5.61139 
15.6758 27.371 7.3731 
18.7358 27.2882 4.28862 
17.1917 28.5377 5.86615 
19.9513 28.5495 5.7036 
17.1154 25.5458 5.66435 
18.5876 27.1495 7.15666 
20.1523 25.7802 5.89987 
21.5428 24.6674 4.16498 
21.3865 27.3214 4.35404 
24.3697 27.2862 4.42709 
23.0192 28.6098 5.61309 
21.4507 27.2447 7.12046 
22.8191 25.8743 5.73564 
24.3459 27.2833 7.09866 
27.221 27.5278 4.24482 
25.9113 25.8176 5.62522 
27.3015 27.3368 6.89482 
2.67873 2.97922 8.52321 
2.94342 0.103311 8.53417 
0.210786 2.81081 8.61518 
1.68259 1.45268 10.0335 
2.88006 2.93896 11.7052 
0.0308977 2.81944 11.7229 
5.64183 2.91913 8.71269 
4.32991 1.47111 10.1069 
7.21782 1.48042 10.1598 
5.80406 2.94594 11.5436 
8.53709 2.84207 8.60799 
11.3006 2.82179 8.56065 
11.4414 0.148613 8.48841 
8.57766 0.0294753 8.74383 
10.0533 1.37736 9.9514 
8.40449 2.90865 11.5644 
11.373 2.65448 11.4945 
14.6 2.87812 8.73066 
14.1516 0.0531354 8.74578 
12.9644 1.40774 10.2963 
15.9719 1.60833 10.1596 
14.3088 2.83257 11.5587 
12.8124 4.05427 10.0324 
17.2069 2.93592 8.52322 
19.9142 2.79816 8.65539 
17.1782 0.0111988 8.52921 
19.8859 0.0485576 11.4237 
18.6416 1.5097 10.0659 
17.2345 2.85732 11.7011 
20.0292 2.94867 11.5909 
22.8832 2.92657 8.60502 
23.0874 0.212624 11.593 
21.3811 1.22526 10.0347 
23.0465 3.05379 11.5209 
24.482 1.59272 10.0832 
25.9944 2.95085 8.6137 
27.3424 1.38227 10.1816 
25.6615 2.91723 11.6375 
2.95153 5.89461 8.61145 
0.000237146 5.53408 8.59448 
1.42229 4.29265 10.1382 
1.57795 7.18687 10.1707 
2.79603 5.74558 11.5437 
0.00422 5.76628 11.4684 
5.64589 5.81582 8.80027 
4.25728 7.30366 10.0508 
4.23961 4.31338 9.97817 
7.17565 4.30421 10.1149 
7.22431 7.07803 10.0534 
5.87297 5.64105 11.4313 
8.42211 5.71621 8.54677 
11.337 5.56747 8.5181 
10.0716 4.19158 10.1644 
9.95651 6.92555 9.94255 
8.52227 5.61879 11.6412 
11.4095 5.65934 11.5111 
14.2741 5.5405 8.56396 
15.7976 4.35211 10.0968 
12.7569 6.88395 9.85269 
15.6975 7.12728 10.0767 
14.2924 5.69191 11.3932 
17.2819 5.67825 8.63768 
20.0983 5.83708 8.66779 
18.5558 4.22534 10.2123 
18.5211 7.10313 10.057 
17.2022 5.69712 11.4962 
19.8087 5.79009 11.3658 
23.0742 5.81766 8.58793 
21.2532 4.33968 10.0463 
21.3069 7.31042 10.073 
22.9572 5.85984 11.384 
24.6033 7.15156 9.89291 
24.3798 4.31479 9.91837 
25.941 5.76261 8.58375 
27.1763 4.18709 10.0499 
27.403 7.30574 10.0026 
25.8937 5.60879 11.3716 
2.78555 8.57837 8.52995 
2.90575 11.5012 8.66631 
0.197433 8.54277 8.33272 
0.195769 11.5997 8.66305 
1.35647 10.1168 10.0371 
2.79865 8.67763 11.5019 
2.82158 11.4821 11.4587 
0.145815 8.64082 11.4795 
5.74485 8.64844 8.64435 
5.81039 11.6613 8.55406 
4.20265 10.1166 10.0241 
7.07266 9.88539 9.87028 
5.7682 8.66524 11.436 
5.81491 11.6369 11.3205 
8.67818 8.64544 8.54781 
11.4677 8.47008 8.58998 
8.5025 11.4922 8.83374 
11.3674 11.5533 8.631 
11.4061 8.57982 11.4055 
10.1276 10.1132 10.128 
8.693 8.45508 11.4549 
8.75432 11.3514 11.4807 
11.4524 11.5209 11.504 
14.0747 8.94352 8.534 
14.2299 11.6132 8.53375 
12.7991 10.082 9.92406 
15.7995 10.2491 9.7739 
14.4122 8.69922 11.3343 
14.3794 11.437 11.3537 
17.143 8.63412 8.66378 
20.0456 8.71173 8.5574 
17.2784 11.6132 8.49294 
20.0534 11.4045 8.56306 
18.5265 10.1261 10.1979 
17.0044 8.54575 11.4806 
19.8666 8.53734 11.4777 
17.2119 11.582 11.4694 
20.0258 11.5417 11.7023 
22.9442 8.6466 8.69863 
22.9715 11.3659 8.67314 
21.3658 10.1394 10.0813 
22.9551 8.50433 11.3446 
22.9674 11.5128 11.5401 
24.4019 9.91286 9.95124 
25.8886 8.69552 8.4937 
26.0507 11.4795 8.67713 
28.6842 11.5879 11.4725 
27.3105 10.0982 10.1964 
25.776 8.80535 11.5619 
25.771 11.3619 11.3051 
2.80038 14.3213 8.57495 
0.0772806 14.2193 8.66671 
1.48838 12.9201 10.1584 
1.54853 15.8562 9.91594 
2.89505 14.3806 11.5145 
5.87664 14.424 8.44617 
4.37299 12.9945 10.1703 
4.32706 15.797 9.83648 
7.09285 13.1017 10.1793 
7.18499 16.0764 9.96368 
5.73075 14.5848 11.4816 
8.57739 14.5094 8.5927 
11.472 14.427 8.54902 
9.98531 13.0472 10.0384 
10.0347 15.8771 9.83604 
8.55772 14.4885 11.3715 
11.4509 14.3122 11.2936 
14.4289 14.3644 8.70018 
12.9455 12.8126 10.1223 
15.835 12.7433 9.96031 
12.9615 15.7252 10.0692 
15.9477 15.8333 10.1125 
14.4474 14.1868 11.4451 
17.379 14.3218 8.44944 
20.059 14.3635 8.52923 
18.7757 13.0205 10.036 
18.844 15.7253 10.1008 
17.3379 14.2282 11.3609 
20.0959 14.3284 11.6666 
22.8252 14.3839 8.85327 
21.3369 12.9157 10.0876 
21.5234 15.8343 10.2645 
22.8431 14.219 11.5174 
24.3088 15.9559 9.82218 
24.4374 12.8609 9.96887 
25.9117 14.3944 8.44198 
28.6832 14.3421 11.5193 
27.2859 12.9574 10.1353 
27.2808 15.7102 9.919 
25.7209 14.3744 11.2951 
2.78573 17.4622 8.57867 
2.84967 20.1487 8.62598 
1.32263 18.667 10.1114 
2.86513 17.2029 11.5267 
2.82039 20.1582 11.3702 
5.79423 17.3425 8.57111 
5.74316 20.17 8.66812 
4.27953 18.7694 9.88024 
7.09122 18.6986 10.0335 
5.53543 17.3145 11.4142 
5.83329 20.0524 11.4848 
8.74949 17.413 8.50027 
11.6153 17.1493 8.45052 
8.66316 20.0252 8.58974 
11.7073 20.2675 8.55833 
10.2446 18.8106 9.91343 
8.79952 17.2416 11.307 
11.6078 16.992 11.4003 
8.77242 19.9743 11.3269 
11.5344 20.0693 11.4032 
14.2375 17.4967 8.78098 
14.411 20.0408 8.78841 
12.938 18.6729 10.1743 
15.9922 18.6887 9.99905 
14.3917 17.1385 11.5152 
14.3668 20.1534 11.352 
17.2385 17.1067 8.69102 
20.1054 17.3779 8.79034 
17.0324 20.0266 8.52582 
20.214 20.1084 8.66937 
18.6517 18.7468 10.0217 
17.3987 17.2998 11.5792 
20.053 17.4431 11.778 
17.3201 20.2361 11.4288 
20.1616 19.9982 11.5394 
22.838 17.3318 8.58504 
23.1715 20.3388 8.75551 
21.5955 18.7139 10.1952 
22.9954 17.2544 11.5632 
22.9251 20.1784 11.6412 
24.2692 18.7214 10.2319 
28.6288 17.3036 8.62454 
28.5877 19.7813 8.54262 
25.8414 17.2954 8.57287 
25.8351 20.2434 8.56734 
28.6272 20.1214 11.4132 
28.6767 17.0782 11.2928 
27.1909 18.5763 9.99196 
25.7024 17.0451 11.4331 
25.8742 20.0202 11.4426 
2.6892 22.9375 8.53037 
1.14617 24.2242 9.72143 
1.33364 21.5003 9.99987 
2.77928 22.8581 11.3394 
5.69827 23.0413 8.4129 
7.1019 24.5571 9.75996 
4.46676 24.3454 9.98413 
4.40678 21.6707 10.0758 
7.2963 21.7061 9.82149 
6.00646 23.05 11.2806 
8.77365 23.048 8.3091 
11.439 23.219 8.53697 
9.9543 24.4416 10.0043 
10.0136 21.6432 9.87107 
8.6706 23.1102 11.4497 
11.4301 23.0441 11.5304 
14.4079 22.9201 8.47699 
15.7319 24.4115 9.87095 
12.8362 24.225 9.89207 
14.3614 23.1207 11.2841 
15.8074 21.6284 10.0003 
12.9912 21.6803 10.075 
17.384 23.0085 8.44982 
20.1698 23.155 8.54139 
18.7334 21.5509 9.9073 
18.7056 24.4706 10.1291 
17.1785 22.9251 11.47 
19.9985 22.7834 11.4806 
23.0884 23.0814 8.76959 
24.4703 24.5644 10.2292 
21.6493 21.5143 9.9604 
22.8322 22.8668 11.5213 
21.5633 24.4824 10.1598 
24.5481 21.6565 10.1827 
28.6008 23.0294 8.4259 
25.8961 22.938 8.68104 
27.3125 24.3509 10.049 
28.5674 22.98 11.5529 
25.8451 22.9628 11.5152 
27.3902 21.4507 9.97356 
0.22598 28.6593 8.60883 
2.89225 25.8151 8.51864 
0.00244667 25.9714 8.58107 
0.176155 28.6791 11.3633 
3.01616 28.5107 11.4626 
2.86727 25.6969 11.3094 
1.55332 27.2838 9.88553 
5.66097 28.6748 8.65639 
5.72141 25.7647 8.45033 
7.26983 27.1434 10.0352 
5.50764 28.6293 11.4881 
5.78705 25.965 11.4369 
4.39403 27.1658 9.85504 
8.57626 25.7723 8.50205 
11.1579 25.9482 8.51731 
8.48829 28.6099 11.4451 
11.4205 28.6842 11.5007 
11.5669 25.8035 11.4557 
8.6447 25.8977 11.5047 
10.0016 27.1851 10.1126 
14.1793 25.9318 8.58958 
14.3795 28.6702 11.3891 
12.8913 27.1951 10.0208 
14.1545 25.812 11.3771 
15.7922 27.0583 10.0197 
19.9738 28.6594 8.55562 
17.1965 25.8323 8.38385 
20.213 26.0003 8.8302 
17.084 28.6976 11.3669 
18.383 27.1946 10.0924 
20.0199 26.1773 11.7635 
16.9383 25.6557 11.5081 
22.8019 28.6731 8.60879 
22.929 25.9656 8.64547 
21.4812 27.432 10.1339 
23.1103 26.0488 11.4694 
24.2629 27.4707 9.99973 
25.7742 28.6716 8.57065 
25.7223 26.0009 8.67891 
27.4359 27.2311 9.96053 
26.0881 25.866 11.4284 
25.8705 28.6172 11.5012 
28.622 25.8578 11.4649 
1.48044 1.16483 12.9538 
1.51044 1.41401 15.7606 
2.86118 2.78974 14.4861 
0.0167853 2.82883 14.4695 
4.16105 1.34911 12.8714 
7.10455 1.50933 12.9246 
4.36892 1.13829 15.6897 
7.2016 1.25668 15.8404 
5.79547 2.84409 14.4365 
9.91993 1.35149 12.9271 
11.5057 2.6899 14.3212 
8.60933 2.72326 14.3075 
10.0147 4.0815 12.9791 
10.1728 1.15277 15.7135 
12.9126 1.31505 12.8907 
15.8834 1.38147 13.0119 
12.9048 1.16732 15.6119 
15.7269 1.40304 15.9025 
14.2209 2.71586 14.446 
18.5783 1.15915 13.0215 
18.5346 1.28633 15.8943 
20.0204 3.25609 14.3915 
17.1543 2.73442 14.4859 
21.5571 1.46039 12.5625 
24.407 1.46308 13.0701 
22.7581 2.90424 14.3223 
20.5984 1.08647 14.6413 
22.2556 1.33959 16.2414 
24.5459 1.51233 15.6407 
27.15 1.36261 12.9622 
27.1754 1.56142 15.7958 
25.7955 2.99511 14.358 
1.52798 4.31245 13.0852 
1.57187 7.3394 12.9053 
2.93674 5.69633 14.1769 
0.0333205 5.76145 14.2271 
1.46212 4.32277 15.6652 
1.48091 7.30385 15.7043 
4.39244 4.4655 12.9656 
7.26421 4.28941 13.2364 
4.32758 7.07939 12.8182 
7.04548 7.23276 12.9185 
6.01801 5.71456 14.2926 
4.39808 4.27848 15.758 
4.23866 7.02186 15.7196 
7.22933 4.25876 16.0264 
7.33969 7.19457 16.0629 
9.96573 7.0638 13.0039 
10.0072 4.17426 15.7484 
9.94866 7.2463 15.7958 
11.5309 5.74694 14.5073 
8.70984 5.76601 14.4217 
13.0092 4.13808 12.8768 
15.7127 4.33688 12.9895 
13.045 7.06706 12.8557 
15.6978 7.05789 12.9698 
14.4135 5.74955 14.2864 
15.7143 4.23638 15.7845 
12.893 4.39575 15.8966 
12.8815 7.08452 15.7503 
15.7272 7.28235 15.8422 
18.5447 4.27609 13.0286 
18.585 7.13498 12.9898 
18.596 4.15732 15.8279 
18.4179 7.21722 15.7527 
20.2068 5.78095 14.4502 
17.2696 5.75623 14.4372 
24.3828 4.51438 12.9012 
21.4249 4.48443 12.8274 
21.5957 7.15352 12.7687 
24.4963 7.36159 12.761 
22.8755 5.86802 14.2809 
21.5524 4.42119 15.8301 
21.4713 7.32318 15.7345 
24.4859 7.25684 15.6795 
24.3038 4.40006 15.7715 
27.3696 4.38412 12.9082 
27.4491 7.09113 12.9421 
25.8665 5.87325 14.217 
27.2122 4.36901 15.7423 
27.1949 7.26408 15.873 
1.31952 10.2089 12.9974 
2.98518 8.57168 14.1373 
1.62167 10.1016 15.6669 
2.97974 11.5169 14.4911 
4.30204 10.0483 12.8915 
7.20452 9.78353 12.8386 
5.74921 11.363 14.3544 
4.32352 9.96128 15.8071 
7.21288 10.0618 15.7076 
5.72342 8.51524 14.3775 
10.11 10.0549 13.0065 
11.5676 8.50267 14.2901 
11.509 11.5505 14.2898 
10.1643 10.012 15.8074 
8.55797 11.3557 14.3663 
8.45454 8.48205 14.3741 
12.8544 9.98925 12.8052 
15.8384 9.98128 12.8408 
14.2445 8.62973 14.2155 
14.5597 11.452 13.9941 
13.0799 10.1588 15.7431 
15.6473 10.1523 15.7529 
18.684 10.0189 12.9385 
17.1615 8.59976 14.332 
17.3335 11.4977 14.3357 
20.1792 8.49808 14.1659 
18.8398 10.0053 15.8053 
20.2716 11.3504 14.5243 
21.5168 9.8966 12.6858 
24.3737 10.1455 12.9425 
22.9217 11.3268 14.353 
23.0934 8.58556 14.217 
21.514 9.89343 15.8172 
24.3376 10.1445 15.7831 
27.2522 10.1838 13.0675 
25.738 11.4362 14.3158 
25.8692 8.65629 14.2326 
28.6194 8.69195 14.3494 
28.5606 11.5743 14.3999 
27.3108 10.1184 16.0738 
1.42178 12.953 12.8918 
1.55213 15.8426 12.7273 
3.13067 14.372 14.2984 
1.42649 12.9323 15.7346 
1.29762 15.6664 15.6495 
4.41947 12.8633 12.8761 
4.28303 15.7783 12.7454 
7.27178 12.732 12.7809 
7.31025 15.8979 12.7224 
6.00347 14.3059 14.1528 
4.33869 15.856 15.7849 
4.34704 12.8956 15.9844 
7.25796 12.733 15.7674 
7.1781 15.6188 15.6324 
9.97871 12.9418 12.8407 
10.1456 15.7371 12.8001 
8.58482 14.2562 14.3432 
11.4467 14.3153 14.1644 
9.9919 12.8765 15.6924 
10.0518 15.6873 15.6993 
13.0595 12.8682 12.9525 
15.9874 13.0238 12.8513 
12.987 15.6382 12.8686 
15.7564 15.7662 12.8662 
14.3698 14.2538 14.2457 
13.0439 12.8732 15.7714 
15.8314 12.8895 15.7565 
12.9911 15.7615 15.6586 
15.749 15.7908 15.7094 
18.6555 12.8677 12.8705 
18.7874 15.954 13.075 
17.3205 14.4308 14.2967 
18.6089 12.9002 15.8365 
18.8499 15.6831 15.6981 
20.3151 14.3392 14.3708 
21.6349 12.7923 13.0311 
21.7906 15.7799 12.9783 
24.303 15.791 12.867 
24.4295 12.9456 12.7848 
21.7128 12.7908 15.7774 
21.5917 15.7434 15.9195 
24.3327 15.7044 15.8175 
23.0059 14.4699 14.5227 
27.1223 12.9859 12.9006 
27.1736 15.7116 12.8523 
25.6795 14.3811 14.1867 
24.6369 12.8434 15.8034 
28.5872 14.2448 14.3771 
27.2093 12.9664 15.811 
27.2856 15.7034 15.8549 
1.41949 18.6549 12.8714 
4.01854 18.9509 12.9583 
2.74143 20.2053 14.3185 
2.99376 17.2647 14.2128 
1.41988 18.6176 15.6796 
7.27882 18.5351 12.5712 
5.75834 20.0741 14.2739 
5.81253 17.1607 14.2242 
4.3521 18.6314 15.7661 
7.31433 18.6536 15.706 
10.1711 18.6177 12.8898 
8.60922 20.0457 14.266 
8.57871 17.0939 14.3089 
11.3074 20.1353 14.3133 
10.0915 18.4944 15.5065 
11.474 17.1879 14.3885 
12.9435 18.6888 12.982 
15.8405 18.6928 12.7528 
14.4958 20.1391 14.2244 
12.8893 18.6752 15.7841 
15.8178 18.6704 15.8335 
14.3765 17.3105 14.4216 
17.3377 17.2419 14.2283 
18.7277 18.7835 13.077 
17.2082 20.0663 14.137 
18.8043 18.8321 15.6712 
20.1695 20.2569 14.3639 
20.305 17.2651 14.3774 
21.7468 18.6642 13.0744 
24.4492 18.7494 12.8673 
22.999 17.2824 14.3146 
21.5469 18.716 15.7026 
24.2564 18.5629 15.7782 
23.04 20.2518 14.544 
25.9104 17.0433 14.2493 
27.1738 18.5431 12.9235 
28.6785 16.9946 14.2251 
28.5461 20.099 14.3122 
27.2783 18.5281 15.6402 
25.7721 20.1846 14.4904 
1.39331 24.4405 12.8583 
1.37475 21.4842 12.8661 
2.76439 22.8677 14.1985 
1.35228 21.5432 15.7005 
1.46992 24.2713 15.6498 
7.12905 24.4615 12.8743 
4.30544 21.6354 12.9892 
4.37561 24.4351 12.7023 
7.19007 21.5386 12.7936 
4.35295 21.4729 15.7577 
7.16899 21.5187 15.6036 
4.15733 24.4203 15.6983 
7.36985 24.3045 15.8716 
5.82224 22.9435 14.3784 
9.98466 24.3868 12.9491 
9.85146 21.4674 12.7738 
11.5613 22.9767 14.3271 
8.84342 22.9922 14.3487 
9.87637 21.402 15.8386 
10.0488 24.4016 15.6081 
13.0126 24.4576 12.8967 
15.6743 24.4287 12.9404 
12.8218 21.462 12.6008 
15.7037 21.6703 12.9859 
12.9704 21.4343 15.5931 
15.8329 21.5155 15.6171 
12.9023 24.42 15.8206 
15.7077 24.3377 15.7369 
14.2857 22.8381 14.4147 
18.6015 24.4335 12.77 
18.6282 21.6387 13.041 
17.1791 23.0906 14.3487 
20.1289 22.9874 14.3021 
18.7952 21.6501 15.7268 
18.6993 24.2036 15.8144 
21.5918 21.5537 13.0228 
21.4481 24.3934 12.8054 
24.4569 21.6596 12.9188 
24.5731 24.4708 12.8587 
22.9161 23.0927 14.2574 
21.6321 21.5811 15.8662 
24.3957 21.5113 15.9197 
24.4022 24.3335 15.765 
21.5034 24.4201 15.854 
27.1208 21.3892 12.7892 
27.2219 24.4259 12.8534 
28.5597 22.9232 14.3174 
27.2841 21.4324 15.7402 
27.0732 24.4833 15.7845 
25.9477 22.9227 14.4422 
1.44242 27.3655 12.8128 
2.71404 26.0515 14.255 
0.0625351 25.8544 14.2156 
1.35922 27.1913 15.8756 
0.103671 28.5718 14.6337 
2.98491 28.4437 14.5389 
7.15264 27.2602 13.0313 
4.46022 27.0679 13.003 
5.62653 25.6288 14.3387 
4.25046 27.008 15.9342 
7.18465 27.2826 15.8404 
5.73484 28.5869 14.4164 
8.54593 25.8212 14.2962 
10.0906 27.0976 12.8618 
11.6378 25.8063 14.3112 
11.3733 28.6467 14.2472 
8.63242 28.6181 14.3969 
10.1038 27.254 15.8413 
14.4003 28.6778 14.1645 
14.2877 25.9891 14.2627 
15.802 27.1614 12.8451 
12.6876 27.339 12.7733 
12.8948 27.1229 15.7732 
15.7001 27.1107 15.7783 
20.0644 25.6959 14.2743 
16.8744 28.6197 14.3525 
18.2575 27.2937 12.7348 
19.6612 27.9346 14.3326 
18.4775 27.1623 16.243 
17.4729 25.9258 14.5395 
24.3487 27.2566 13.0741 
21.5135 27.3243 12.9943 
22.7276 28.6819 14.2541 
21.5322 27.2947 15.8182 
24.5762 27.2622 15.7499 
22.8415 25.7258 14.4426 
27.3652 27.3252 12.8927 
25.9939 28.5634 14.5514 
27.3846 27.2696 15.8467 
25.8622 25.8569 14.4525 
1.58814 1.63211 18.695 
2.87571 2.90814 17.2858 
0.131394 2.81714 17.2437 
3.129 3.02237 20.1544 
0.057688 0.162345 20.0343 
0.0859244 2.94006 20.1087 
2.80268 0.0546587 19.9364 
4.35139 1.49482 18.5009 
7.19341 1.23724 18.5719 
5.85365 2.90464 17.2035 
5.72494 2.89842 20.1024 
5.89566 0.0135025 19.9668 
10.1088 1.35963 18.6681 
8.5655 2.69511 17.2981 
11.5519 2.68685 17.0159 
8.58273 0.00786336 17.2806 
8.64733 2.7833 20.055 
11.7598 2.74765 20.0896 
12.9006 1.21341 18.645 
15.797 1.51901 18.473 
14.3162 2.8002 17.3038 
14.4664 2.85519 20.1958 
18.6284 1.36142 18.7261 
17.32 2.98893 17.3479 
20.1874 2.76695 17.0665 
17.1479 2.8625 20.1395 
20.178 3.0608 20.1727 
21.5242 1.25371 18.6282 
22.9878 3.1437 17.2809 
24.3459 1.4997 18.5986 
22.9439 2.93709 20.2138 
27.3783 1.51157 18.7527 
25.8452 2.83272 17.3567 
25.9183 0.0883626 17.237 
25.7358 2.92619 20.1129 
1.50159 4.5017 18.5899 
1.55991 7.16875 18.6011 
2.91038 5.73772 17.3597 
2.807 5.69967 20.2513 
0.125683 5.80401 20.0759 
7.40197 4.38618 18.6971 
4.4891 4.41521 18.5992 
4.1334 7.17976 18.752 
5.63158 5.73032 17.26 
7.14761 7.28305 18.6533 