ITEM: TIMESTEP
92043
ITEM: NUMBER OF ATOMS
18
ITEM: BOX BOUNDS pp pp pp
0.0000000000000000e+00 2.8712000000000000e+01
0.0000000000000000e+00 2.8712000000000000e+01
0.0000000000000000e+00 2.8712000000000000e+01
ITEM: ATOMS x y z c_cna 
18.6969 1.44246 15.7771 5 
20.1086 2.84125 14.3783 5 
21.531 1.4379 12.8026 5 
21.5311 0.693498 15.0279 5 
24.3652 1.44255 15.7771 5 
22.9534 2.84129 14.3783 5 
21.531 4.4168 15.7818 5 
19.6934 28.5683 14.191 5 
23.3686 28.5685 14.191 5 
21.5311 27.3343 12.9567 5 
21.5311 27.1802 15.7724 5 
19.6933 3.02868 17.3633 5 
20.1087 0.0436706 17.1759 5 
21.531 2.19141 16.5263 5 
21.531 1.44711 18.7516 5 
23.3688 3.02873 17.3633 5 
22.9534 0.0437541 17.1759 5 
21.531 4.26286 18.5975 5 
ITEM: TIMESTEP
92044
ITEM: NUMBER OF ATOMS
18
ITEM: BOX BOUNDS pp pp pp
0.0000000000000000e+00 2.8712000000000000e+01
0.0000000000000000e+00 2.8712000000000000e+01
0.0000000000000000e+00 2.8712000000000000e+01
ITEM: ATOMS x y z c_cna 
18.6969 1.44246 15.7771 5 
20.1086 2.84125 14.3783 5 
21.531 1.4379 12.8026 5 
21.5311 0.693498 15.0279 5 
24.3652 1.44255 15.7771 5 
22.9534 2.84129 14.3783 5 
21.531 4.4168 15.7818 5 
19.6934 28.5683 14.191 5 
23.3686 28.5685 14.191 5 
21.5311 27.3343 12.9567 5 
21.5311 27.1802 15.7724 5 
19.6933 3.02868 17.3633 5 
20.1087 0.0436706 17.1759 5 
21.531 2.19141 16.5263 5 
21.531 1.44711 18.7516 5 
23.3688 3.02873 17.3633 5 
22.9534 0.0437541 17.1759 5 
21.531 4.26286 18.5975 5 
