ITEM: TIMESTEP
93043
ITEM: NUMBER OF ATOMS
2001
ITEM: BOX BOUNDS pp pp pp
0.0000000000000000e+00 2.8712000000000000e+01
0.0000000000000000e+00 2.8712000000000000e+01
0.0000000000000000e+00 2.8712000000000000e+01
ITEM: ATOMS x y z c_cna 
1.4336 1.44256 1.42108 3 
2.86947 2.87878 2.85589 3 
2.8696 0.0067057 2.85541 3 
4.30475 1.44262 1.42101 3 
7.17516 1.44266 1.42099 3 
5.74013 2.87876 2.85599 3 
5.74014 0.0067479 2.85548 3 
10.0456 1.44264 1.42099 3 
8.61028 2.87879 2.85597 3 
11.4809 2.87879 2.85584 3 
8.61014 0.00672683 2.85544 3 
11.4807 0.00669661 2.85534 3 
12.9167 1.44259 1.42102 3 
15.7882 1.44253 1.42106 3 
14.3523 2.8786 2.85606 3 
14.3521 0.00663374 2.85565 3 
18.6597 1.44248 1.42108 3 
17.224 2.87809 2.85656 3 
20.0955 2.8775 2.857 3 
20.0953 0.00660241 2.85679 3 
17.2237 0.00659583 2.85631 3 
22.9667 2.87749 2.85703 3 
24.4025 1.44247 1.42109 3 
21.5311 1.44241 1.42106 3 
22.967 0.00662579 2.85682 3 
28.7099 2.87857 2.85614 3 
27.274 1.44253 1.42113 3 
25.8382 2.8781 2.85664 3 
28.7102 0.00669081 2.85577 3 
25.8385 0.0066536 2.85638 3 
1.43357 4.31446 1.42152 3 
1.43339 7.18622 1.42189 3 
2.86922 5.75058 2.85632 3 
4.30477 4.31458 1.4215 3 
4.30466 7.18636 1.42188 3 
7.17521 4.31463 1.42147 3 
7.17523 7.18642 1.42182 3 
5.74005 5.75063 2.85642 3 
10.0456 4.31465 1.42144 3 
10.0458 7.18646 1.42179 3 
8.61038 5.75066 2.85641 3 
11.4812 5.75065 2.85624 3 
15.7883 4.31417 1.42133 3 
12.9167 4.31452 1.42141 3 
12.917 7.18631 1.42175 3 
15.7886 7.18576 1.42164 3 
14.3527 5.75026 2.85639 3 
18.6598 4.31363 1.42126 3 
18.66 7.1851 1.42148 3 
17.2244 5.7495 2.85668 3 
20.0956 5.74886 2.85688 3 
21.5311 4.31333 1.42125 3 
21.5311 7.1848 1.42149 3 
22.9666 5.74887 2.85693 3 
24.4022 7.18505 1.42158 3 
24.4024 4.31362 1.42132 3 
28.7096 5.75025 2.85647 3 
27.2739 4.31414 1.42144 3 
27.2737 7.18573 1.42178 3 
25.8378 5.74948 2.85675 3 
1.43303 10.0576 1.4221 3 
2.86882 8.62196 2.85672 3 
2.86837 11.4928 2.85688 3 
4.30439 10.0577 1.42206 3 
7.1752 10.0578 1.42199 3 
5.73988 8.62208 2.85674 3 
5.73965 11.4929 2.85681 3 
10.046 10.0578 1.42198 3 
8.61054 8.62213 2.85671 3 
11.4816 8.62204 2.85659 3 
8.61067 11.4929 2.85679 3 
11.482 11.4928 2.85674 3 
12.9174 10.0577 1.42195 3 
15.789 10.0572 1.42181 3 
14.3532 8.62159 2.8567 3 
14.3535 11.4925 2.85681 3 
18.6602 10.0567 1.42167 3 
17.2246 8.62092 2.85681 3 
20.0956 8.62048 2.85684 3 
17.2248 11.4921 2.85685 3 
20.0957 11.4918 2.85687 3 
21.5311 10.0565 1.42169 3 
22.9665 8.62045 2.85692 3 
22.9666 11.4918 2.85696 3 
24.4021 10.0566 1.42177 3 
28.7092 8.62156 2.85682 3 
28.7088 11.4924 2.85696 3 
27.2733 10.0571 1.42194 3 
25.8376 8.62088 2.8569 3 
25.8374 11.492 2.85699 3 
1.43258 12.9282 1.4218 3 
1.43239 15.7985 1.42109 3 
2.86809 14.363 2.85651 3 
4.30379 15.7985 1.42107 3 
4.30404 12.9284 1.42181 3 
7.17516 12.9284 1.42171 3 
7.17508 15.7985 1.42099 3 
5.73949 14.3631 2.85642 3 
10.0462 12.9285 1.4217 3 
10.0464 15.7985 1.42094 3 
8.61069 14.3631 2.85635 3 
11.4821 14.3631 2.85632 3 
12.9178 12.9284 1.42162 3 
15.7892 12.9282 1.42157 3 
12.9179 15.7986 1.42089 3 
15.7892 15.7987 1.42091 3 
14.3536 14.363 2.85641 3 
18.6603 12.9279 1.42152 3 
18.6603 15.7987 1.42093 3 
17.2248 14.3629 2.8565 3 
20.0958 14.3629 2.85654 3 
21.5312 12.9278 1.42156 3 
21.5312 15.7987 1.42094 3 
22.9666 14.3628 2.85662 3 
24.4021 15.7987 1.42102 3 
24.4021 12.9278 1.42163 3 
28.7087 14.3629 2.85661 3 
27.2731 12.928 1.42174 3 
27.2731 15.7986 1.4211 3 
25.8375 14.3629 2.85664 3 
1.43259 18.6688 1.42035 3 
2.86828 17.233 2.85566 3 
2.86903 20.1033 2.85481 3 
4.304 18.6685 1.42028 3 
7.175 18.6685 1.42023 3 
5.73956 17.2329 2.85558 3 
5.73984 20.1034 2.85493 3 
10.0461 18.6686 1.42016 3 
8.61051 17.233 2.8555 3 
11.4818 17.233 2.85548 3 
8.61022 20.1033 2.85484 3 
11.4811 20.1033 2.85467 3 
12.9176 18.6688 1.42017 3 
15.7891 18.6692 1.42025 3 
14.3534 17.2333 2.85562 3 
14.3529 20.1037 2.85492 3 
18.6603 18.6695 1.42033 3 
17.2247 17.2335 2.85578 3 
20.0957 17.2336 2.85585 3 
17.2245 20.1042 2.85521 3 
20.0957 20.1044 2.85537 3 
21.5312 18.6695 1.42036 3 
24.4022 18.6694 1.42043 3 
22.9666 17.2336 2.85591 3 
22.9667 20.1044 2.85541 3 
28.7094 20.1038 2.85507 3 
28.7089 17.2332 2.85582 3 
27.2732 18.6691 1.42043 3 
25.8376 17.2335 2.85593 3 
25.8379 20.1042 2.85534 3 
1.43312 21.5395 1.42004 3 
2.86953 22.9746 2.85463 3 
1.43346 24.4109 1.42026 3 
4.30436 21.5393 1.41998 3 
7.175 21.5392 1.41995 3 
5.74005 22.9747 2.8548 3 
7.17504 24.4107 1.42013 3 
4.30461 24.4107 1.42015 3 
10.0457 21.5392 1.41989 3 
8.61007 22.9747 2.85473 3 
11.4807 22.9745 2.85454 3 
10.0455 24.4107 1.42012 3 
12.9171 21.5394 1.41992 3 
15.7888 21.54 1.4201 3 
14.3522 22.9747 2.85474 3 
15.7885 24.4113 1.42036 3 
12.9168 24.4108 1.42018 3 
18.6602 21.5405 1.42027 3 
17.2242 22.9754 2.85529 3 
20.0957 22.9759 2.85558 3 
18.6601 24.412 1.42055 3 
21.5312 21.5407 1.42031 3 
24.4022 21.5406 1.4203 3 
22.9668 22.976 2.85559 3 
21.5312 24.4123 1.42061 3 
24.4024 24.412 1.42057 3 
28.7101 22.9748 2.85488 3 
27.2735 21.5401 1.42022 3 
25.8382 22.9755 2.85539 3 
27.2738 24.4114 1.42044 3 
1.43358 27.2827 1.42066 3 
2.86967 25.8466 2.85496 3 
4.30472 27.2826 1.42053 3 
7.17509 27.2826 1.42051 3 
5.74013 25.8466 2.85505 3 
10.0455 27.2826 1.42052 3 
8.61006 25.8466 2.855 3 
11.4806 25.8465 2.85486 3 
12.9166 27.2826 1.42058 3 
15.7883 27.2829 1.42072 3 
14.3519 25.8465 2.85514 3 
18.6598 27.2833 1.42083 3 
17.2237 25.8469 2.85576 3 
20.0955 25.8475 2.85621 3 
21.5312 27.2836 1.42087 3 
22.9669 25.8476 2.85623 3 
24.4025 27.2834 1.42086 3 
28.7103 25.8466 2.85529 3 
27.274 27.2829 1.42082 3 
25.8386 25.847 2.85588 3 
1.43466 1.44294 4.29028 3 
1.43761 1.44355 7.15882 3 
2.87089 2.87933 5.72515 3 
0.000610265 0.00662966 5.72445 3 
2.87136 0.00683229 5.72454 3 
4.3054 1.44292 4.2904 3 
7.17521 1.44285 4.29071 3 
4.30628 1.44304 7.16075 3 
7.17528 1.44284 7.16146 3 
5.74055 2.87898 5.72604 3 
5.74065 0.00679596 5.72555 3 
10.045 1.44289 4.29034 3 
10.0442 1.44295 7.16071 3 
8.60999 2.87895 5.72603 3 
11.4795 2.87928 5.72512 3 
11.479 0.00673583 5.72444 3 
8.60978 0.00675136 5.72553 3 
12.9157 1.44289 4.29019 3 
15.7874 1.44254 4.29105 3 
12.9128 1.44341 7.15879 3 
15.7841 1.44309 7.15907 3 
14.3505 2.87931 5.72511 3 
14.3497 0.00646923 5.72434 3 
18.6593 1.44188 4.29233 3 
18.6575 1.44124 7.16245 3 
17.223 2.87831 5.72677 3 
20.0954 2.87668 5.72862 3 
20.0944 0.00531957 5.72823 3 
17.222 0.00580883 5.72616 3 
21.5311 1.44136 4.29304 3 
24.4029 1.44194 4.2924 3 
21.531 1.43923 7.1651 3 
22.9667 2.87669 5.72864 3 
24.4046 1.44137 7.16253 3 
22.9677 0.00539837 5.72827 3 
27.2748 1.44261 4.29115 3 
28.7118 2.87936 5.72514 3 
27.2782 1.44324 7.15913 3 
25.8392 2.87837 5.7268 3 
25.8403 0.00594917 5.72627 3 
1.43419 4.31495 4.29075 3 
1.43354 7.18642 4.29131 3 
1.43656 4.31616 7.15976 3 
1.43507 7.18731 7.161 3 
2.87025 5.75119 5.72578 3 
4.30479 7.18653 4.29137 3 
4.30518 4.31493 4.2909 3 
7.17524 4.31484 4.29118 3 
7.17522 7.18649 4.29156 3 
4.30538 7.18664 7.16183 3 
7.17532 4.31486 7.16185 3 
4.30596 4.3152 7.16127 3 
5.74036 5.75081 5.72648 3 
7.17529 7.18642 7.16218 3 
10.0453 4.31499 4.29087 3 
10.0457 7.1866 4.29132 3 
10.0446 4.31518 7.16128 3 
8.61018 5.75084 5.72644 3 
10.0451 7.18673 7.1618 3 
11.4802 5.75123 5.72579 3 
12.9162 4.31498 4.29072 3 
15.788 4.31439 4.29139 3 
12.9168 7.18646 4.29124 3 
15.7887 7.1857 4.29171 3 
12.9138 4.3161 7.15978 3 
15.7857 4.31597 7.16012 3 
12.9153 7.18739 7.161 3 
14.3515 5.75113 5.72581 3 
15.7875 7.18671 7.16158 3 
18.66 4.31327 4.29236 3 
18.6602 7.18488 4.29216 3 
18.6593 4.31385 7.16261 3 
17.224 5.74993 5.72697 3 
18.6599 7.18528 7.16294 3 
20.0956 5.74886 5.72785 3 
21.531 4.3126 7.16384 3 
21.531 4.31275 4.29273 3 
21.531 7.18454 4.29232 3 
24.402 7.18485 4.29222 3 
24.4022 4.31328 4.29239 3 
24.4028 4.31387 7.16261 3 
21.531 7.18469 7.16344 3 
22.9665 5.74885 5.72787 3 
24.4022 7.18522 7.16295 3 
28.7108 5.75112 5.72582 3 
27.2742 4.31438 4.29142 3 
27.2736 7.1857 4.29174 3 
27.2766 4.31606 7.16013 3 
25.8382 5.74992 5.72699 3 
27.2747 7.18663 7.16161 3 
1.43283 10.0572 4.29186 3 
1.4334 10.0573 7.16226 3 
2.86934 8.62218 5.72655 3 
2.8685 11.4925 5.72705 3 
4.30429 10.0574 4.29177 3 
7.17516 10.0575 4.29182 3 
4.3046 10.0574 7.16229 3 
5.74002 8.62202 5.72687 3 
7.17519 10.0573 7.16238 3 
5.73965 11.4925 5.72703 3 
10.0461 10.0575 4.29169 3 
8.61042 8.62207 5.72682 3 
10.0458 10.0575 7.16222 3 
11.4811 8.62225 5.72648 3 
8.61061 11.4926 5.72698 3 
11.4818 11.4926 5.72694 3 
12.9175 10.0573 4.29172 3 
15.7891 10.0567 4.29201 3 
12.9169 10.0574 7.16218 3 
14.3527 8.62186 5.72669 3 
15.7888 10.0567 7.16278 3 
14.3534 11.4922 5.72721 3 
18.6603 10.0562 4.29221 3 
20.0957 8.62035 5.7278 3 
17.2246 8.62095 5.72739 3 
18.6602 10.0558 7.16352 3 
17.2248 11.4917 5.72765 3 
20.0957 11.4913 5.72789 3 
21.5311 10.0559 4.29233 3 
24.4019 10.0561 4.29234 3 
21.531 10.0555 7.16379 3 
22.9664 8.62031 5.72783 3 
22.9664 11.4913 5.72796 3 
24.4019 10.0557 7.16357 3 
28.7088 11.4921 5.72734 3 
27.2731 10.0566 4.29213 3 
28.7096 8.62178 5.72678 3 
25.8376 8.62087 5.72745 3 
27.2734 10.0565 7.16289 3 
25.8374 11.4916 5.72776 3 
1.43241 12.9275 4.29193 3 
1.4325 15.7976 4.29132 3 
1.43275 12.9275 7.16237 3 
1.43293 15.7973 7.16195 3 
2.86827 14.3625 5.7268 3 
7.17508 12.9278 4.29172 3 
4.30389 12.9277 4.29177 3 
4.30393 15.7976 4.29113 3 
7.17503 15.7976 4.29109 3 
4.30418 15.7973 7.16183 3 
4.30417 12.9277 7.16221 3 
7.17509 12.9276 7.16221 3 
5.73952 14.3626 5.72669 3 
7.175 15.7973 7.1618 3 
10.0463 12.9278 4.29168 3 
10.0461 15.7976 4.291 3 
10.046 12.9277 7.16213 3 
8.61058 14.3626 5.72663 3 
10.0458 15.7973 7.16172 3 
11.4819 14.3626 5.72665 3 
15.7893 12.9274 4.29201 3 
12.9178 12.9277 4.29177 3 
12.9177 15.7977 4.29114 3 
15.7891 15.7978 4.29138 3 
12.9174 12.9277 7.16228 3 
15.7891 12.9273 7.16272 3 
12.9172 15.7973 7.16181 3 
14.3534 14.3625 5.72693 3 
15.7889 15.7975 7.16226 3 
18.6604 12.9271 4.29213 3 
18.6603 15.7978 4.29156 3 
18.6603 12.927 7.16315 3 
17.2248 14.3624 5.72725 3 
18.6602 15.7975 7.16265 3 
20.0957 14.3623 5.72745 3 
21.5311 12.927 4.29222 3 
21.5312 15.7979 4.29165 3 
24.4019 12.9271 4.29227 3 
24.402 15.7978 4.29168 3 
21.5311 12.9268 7.16332 3 
21.5311 15.7975 7.16285 3 
22.9665 14.3623 5.72752 3 
24.4019 12.9269 7.16325 3 
24.402 15.7975 7.16279 3 
27.2729 12.9273 4.29214 3 
27.2731 15.7978 4.29155 3 
28.7087 14.3624 5.72708 3 
27.2731 12.9272 7.16283 3 
25.8374 14.3624 5.72741 3 
27.2733 15.7974 7.1624 3 
1.43328 18.6676 4.29018 3 
1.43448 18.6664 7.16048 3 
2.86887 17.2321 5.72585 3 
2.87056 20.1017 5.72433 3 
4.30464 18.6675 4.2901 3 
7.175 18.6676 4.29026 3 
4.30519 18.6668 7.16091 3 
5.73975 17.2322 5.72596 3 
7.17498 18.6671 7.16115 3 
5.74029 20.1025 5.72514 3 
10.0454 18.6674 4.28997 3 
8.61025 17.2322 5.7259 3 
10.0448 18.6668 7.1608 3 
11.4812 17.2321 5.72572 3 
8.60973 20.1025 5.72508 3 
11.4795 20.1017 5.7242 3 
12.9169 18.6676 4.29003 3 
15.7886 18.6679 4.29037 3 
12.9156 18.6664 7.16032 3 
14.3529 17.2324 5.726 3 
15.7879 18.667 7.16088 3 
14.3516 20.1019 5.72439 3 
18.6601 18.6682 4.29065 3 
17.2245 17.2326 5.7264 3 
18.6598 18.6675 7.16143 3 
20.0957 17.2328 5.72665 3 
17.2239 20.1025 5.72502 3 
20.0955 20.1029 5.72537 3 
21.5312 18.6683 4.29076 3 
24.4023 18.6682 4.29075 3 
21.5311 18.6676 7.16173 3 
22.9666 17.2327 5.72674 3 
22.9668 20.1029 5.72544 3 
24.4024 18.6675 7.16161 3 
28.7106 20.102 5.72456 3 
27.2736 18.668 4.29054 3 
28.7093 17.2324 5.72617 3 
25.8378 17.2326 5.72656 3 
27.2742 18.667 7.16105 3 
25.8384 20.1026 5.72517 3 
1.4346 21.538 4.28916 3 
1.43514 24.4099 4.28919 3 
1.43774 21.5351 7.15773 3 
2.87163 22.9732 5.72366 3 
1.43896 24.4076 7.15706 3 
0.000824255 22.9721 5.72305 3 
4.30533 21.5384 4.28947 3 
4.30561 24.4103 4.28951 3 
7.17504 21.5386 4.28982 3 
7.1751 24.4105 4.2899 3 
4.30677 24.4095 7.15978 3 
4.30642 21.5373 7.15991 3 
7.17504 21.538 7.16064 3 
5.74062 22.9741 5.72489 3 
7.17514 24.4101 7.16066 3 
10.0448 21.5383 4.28935 3 
10.0446 24.4102 4.2894 3 
10.0437 21.5372 7.1598 3 
8.60956 22.974 5.72483 3 
11.4786 22.973 5.72351 3 
10.0435 24.4094 7.15967 3 
12.9156 21.5379 4.289 3 
15.7879 21.5385 4.28963 3 
12.9151 24.4098 4.28901 3 
15.787 24.4098 4.28959 3 
12.9125 21.535 7.15754 3 
15.7862 21.5358 7.15834 3 
14.3495 22.972 5.72285 3 
15.7825 24.4052 7.15597 3 
12.9113 24.4074 7.15685 3 
18.6599 21.5392 4.29014 3 
18.6595 24.4108 4.29067 3 
18.6593 21.5369 7.15939 3 
17.2232 22.9733 5.72433 3 
20.0954 22.9741 5.72507 3 
18.6589 24.4082 7.15937 3 
21.5312 21.5394 4.29033 3 
24.4025 21.5392 4.29023 3 
24.4029 24.4109 4.29076 3 
21.5312 21.5373 7.15978 3 
22.967 22.9742 5.72514 3 
24.403 21.5369 7.15955 3 
21.5312 24.4092 7.16014 3 
21.5312 24.4113 4.29102 3 
24.4035 24.4083 7.15951 3 
27.2743 21.5386 4.28981 3 
27.2753 24.4099 4.2898 3 
27.2761 21.5359 7.15852 3 
25.8392 22.9734 5.72452 3 
27.2798 24.4054 7.15617 3 
1.43501 27.2825 4.28972 3 
1.43849 27.2818 7.15784 3 
2.87173 25.846 5.72396 3 
0.00118928 25.8451 5.72352 3 
4.30558 27.2826 4.2899 3 
7.17515 27.2827 4.29023 3 
4.30659 27.2824 7.16019 3 
5.74071 25.8464 5.72513 3 
7.1752 27.2825 7.161 3 
10.0447 27.2826 4.28981 3 
8.60961 25.8464 5.72506 3 
10.0438 27.2823 7.1601 3 
11.4786 25.8458 5.72378 3 
12.9153 27.2824 4.28959 3 
15.7869 27.2822 4.29042 3 
12.9119 27.2816 7.15769 3 
14.3491 25.845 5.72332 3 
15.7826 27.2803 7.15753 3 
18.659 27.2824 4.29166 3 
17.2216 25.8447 5.72478 3 
18.6561 27.2794 7.16073 3 
20.0951 25.8463 5.72655 3 
21.5312 27.2828 4.29223 3 
24.4033 27.2824 4.29176 3 
21.5311 27.2817 7.16314 3 
22.9673 25.8464 5.72662 3 
24.4062 27.2796 7.16085 3 
27.2753 27.2823 4.29057 3 
25.8407 25.8449 5.72494 3 
27.2796 27.2805 7.15768 3 
2.87206 2.87959 8.59582 3 
0.00435612 2.88146 8.59258 3 
2.87267 0.00664396 8.59507 3 
1.43884 1.44349 10.0298 3 
2.87171 2.8791 11.4682 3 
0.00546234 2.88146 11.465 3 
0.00617211 0.00669208 8.59088 3 
0.0070467 0.00522372 11.4628 3 
2.87195 0.00611673 11.4674 3 
5.74072 2.87889 8.59724 3 
4.30627 1.4428 10.0325 3 
7.17527 1.44262 10.0331 3 
5.74058 2.87861 11.4692 3 
5.74081 0.00665009 8.59681 3 
5.74056 0.00645886 11.4688 3 
8.60988 2.87883 8.59725 3 
11.4784 2.87945 8.59583 3 
11.4777 0.00644376 8.59498 3 
10.0442 1.44262 10.0325 3 
8.61001 2.8785 11.4692 3 
11.4787 2.87888 11.4682 3 
11.4784 0.00583774 11.4674 3 
8.60967 0.00656162 8.59679 3 
8.60992 0.00632818 11.4688 3 
14.346 2.88126 8.59257 3 
12.9115 1.44321 10.0298 3 
15.7748 1.44622 10.0222 3 
14.3449 2.88118 11.465 3 
14.3441 0.00644024 8.59078 3 
14.3432 0.00489522 11.4627 3 
17.219 2.88058 8.59382 3 
20.0946 2.87639 8.59887 3 
17.2158 0.00432146 8.59192 3 
20.0907 0.00163877 8.59839 3 
18.6502 1.44211 10.0262 3 
17.2035 2.89293 11.4524 3 
20.0858 2.88784 11.4586 3 
17.1921 0.00509007 11.4431 3 
22.9674 2.87645 8.59888 3 
22.9714 0.00175251 8.59842 3 
21.531 1.43312 10.0331 3 
22.9761 2.8879 11.4585 3 
24.4119 1.44232 10.0262 3 
25.8432 2.88073 8.59385 3 
27.2875 1.44651 10.0223 3 
25.8587 2.89314 11.4523 3 
25.8464 0.004569 8.59202 3 
25.87 0.00542844 11.4431 3 
2.87129 5.75147 8.59659 3 
1.43789 4.3165 10.0311 3 
1.43596 7.18702 10.0326 3 
2.87147 5.75102 11.4688 3 
0.00243383 5.75156 11.4682 3 
0.00193107 5.75325 8.59472 3 
5.74061 5.75066 8.59759 3 
4.30573 7.18649 10.0333 3 
4.30614 4.31498 10.0329 3 
7.17535 4.3146 10.0334 3 
7.1753 7.18626 10.0336 3 
5.74062 5.75047 11.4694 3 
8.61005 5.75069 8.59761 3 
11.4792 5.75149 8.59662 3 
10.0445 4.31492 10.033 3 
10.0448 7.18657 10.0333 3 
8.61001 5.75048 11.4694 3 
11.479 5.75099 11.4688 3 
14.3484 5.75325 8.59475 3 
12.9125 4.31639 10.0311 3 
15.779 4.3209 10.0265 3 
12.9144 7.18714 10.0326 3 
15.786 7.18652 10.0331 3 
14.3478 5.7515 11.4682 3 
17.2219 5.75202 8.59614 3 
20.0954 5.74968 8.59858 3 
18.6553 4.31838 10.0295 3 
18.6595 7.18394 10.0356 3 
17.2208 5.74937 11.4703 3 
20.0957 5.74461 11.4751 3 
22.9667 5.74968 8.59858 3 
21.531 4.3145 10.0333 3 
21.531 7.18272 10.0368 3 
22.9662 5.74462 11.4751 3 
24.4025 7.18394 10.0356 3 
24.4068 4.31844 10.0295 3 
25.8403 5.75202 8.59616 3 
27.2832 4.32104 10.0265 3 
27.2762 7.18648 10.0331 3 
25.8413 5.74942 11.4703 3 
2.87003 8.62219 8.59745 3 
2.86919 11.4929 8.59751 3 
1.43489 10.0585 10.0323 3 
2.87112 8.62301 11.4683 3 
2.86999 11.4936 11.4686 3 
0.00176128 8.62478 11.4665 3 
5.74024 8.62194 8.59782 3 
5.73991 11.4927 8.59773 3 
4.30523 10.0578 10.0331 3 
7.17521 10.0575 10.0335 3 
5.74048 8.62211 11.4692 3 
5.74017 11.4931 11.4691 3 
8.61024 8.62199 8.59782 3 
11.4804 8.62232 8.59742 3 
8.61037 11.4927 8.59771 3 
11.4811 11.493 8.59744 3 
11.4793 8.62312 11.4684 3 
10.0451 10.0579 10.0331 3 
8.60999 8.62217 11.4692 3 
8.61011 11.4931 11.4691 3 
11.4803 11.4938 11.4686 3 
14.3516 8.62216 8.59742 3 
14.3527 11.4927 8.59769 3 
12.9154 10.0586 10.0324 3 
15.7875 10.0579 10.0328 3 
14.3485 8.6249 11.4665 3 
14.3516 11.4938 11.4686 3 
17.224 8.62074 8.59869 3 
20.0956 8.61956 8.59981 3 
17.2245 11.4919 8.59845 3 
20.0957 11.4914 8.59899 3 
18.6599 10.0564 10.0342 3 
17.2219 8.62339 11.4676 3 
20.0953 8.62095 11.4699 3 
17.224 11.4925 11.4696 3 
20.0956 11.4915 11.4706 3 
22.9664 8.61954 8.59978 3 
22.9664 11.4914 8.599 3 
21.531 10.0559 10.0347 3 
22.9666 8.62095 11.4699 3 
22.9664 11.4915 11.4706 3 
24.4021 10.0564 10.0342 3 
28.7107 8.62203 8.59745 3 
28.7095 11.4926 8.59774 3 
25.8381 8.62066 8.59872 3 
25.8376 11.4919 8.59853 3 
28.7105 11.4936 11.4685 3 
27.2746 10.0578 10.0328 3 
25.8402 8.62336 11.4676 3 
25.838 11.4924 11.4695 3 
2.86864 14.3626 8.59766 3 
1.43335 12.9281 10.0332 3 
1.43322 15.7975 10.0333 3 
2.86897 14.363 11.4691 3 
5.73967 14.3626 8.5976 3 
4.30459 12.928 10.0332 3 
4.30444 15.7975 10.0332 3 
7.17508 12.9279 10.0333 3 
7.17501 15.7975 10.0332 3 
5.73983 14.363 11.4691 3 
8.61041 14.3626 8.59755 3 
11.4815 14.3627 8.59755 3 
10.0456 12.9281 10.0332 3 
10.0456 15.7975 10.0332 3 
8.61027 14.363 11.4691 3 
11.4811 14.3632 11.4691 3 
14.3531 14.3626 8.59788 3 
12.9168 12.9282 10.0332 3 
15.7887 12.9277 10.0337 3 
12.9168 15.7976 10.0333 3 
15.7886 15.7976 10.0336 3 
14.3527 14.3631 11.4693 3 
17.2246 14.3624 8.59841 3 
20.0957 14.3623 8.5988 3 
18.6602 12.9271 10.0345 3 
18.6601 15.7977 10.0342 3 
17.2244 14.3626 11.4699 3 
20.0956 14.3624 11.4705 3 
22.9664 14.3623 8.59886 3 
21.531 12.9269 10.0348 3 
21.5311 15.7977 10.0345 3 
22.9665 14.3624 11.4705 3 
24.4021 15.7977 10.0343 3 
24.4019 12.9271 10.0345 3 
28.7091 14.3625 8.59797 3 
25.8375 14.3624 8.59853 3 
28.7094 14.3629 11.4693 3 
27.2735 12.9276 10.0338 3 
27.2736 15.7976 10.0337 3 
25.8377 14.3626 11.4699 3 
2.86933 17.2319 8.59713 3 
2.8715 20.1009 8.59572 3 
0.000679804 20.1003 8.59463 3 
1.43492 18.6664 10.0324 3 
2.86943 17.2322 11.469 3 
2.87148 20.1012 11.4684 3 
0.000998746 20.1007 11.4676 3 
5.73989 17.2321 8.59722 3 
5.74051 20.1022 8.59661 3 
4.30541 18.6668 10.0328 3 
7.17498 18.6672 10.0329 3 
5.73997 17.2323 11.4691 3 
5.74052 20.1024 11.4688 3 
8.61006 17.2321 8.59716 3 
11.4807 17.2319 8.59696 3 
8.60947 20.1021 8.59656 3 
11.4786 20.1009 8.59555 3 
10.0446 18.6667 10.0327 3 
8.61001 17.2324 11.469 3 
11.4805 17.2322 11.469 3 
8.60946 20.1024 11.4688 3 
11.4785 20.1011 11.4683 3 
14.3522 17.232 8.59704 3 
14.3495 20.1002 8.59444 3 
12.9151 18.6663 10.0322 3 
15.787 18.6668 10.0321 3 
14.352 17.2324 11.4689 3 
14.3491 20.1006 11.4674 3 
17.2242 17.2325 8.59764 3 
20.0956 17.2328 8.59814 3 
17.2232 20.1016 8.59565 3 
20.0954 20.1024 8.59648 3 
18.6595 18.6678 10.0331 3 
17.2238 17.233 11.4692 3 
20.0954 17.2333 11.4698 3 
17.2217 20.102 11.467 3 
20.0951 20.1037 11.4686 3 
22.9666 17.2327 8.5982 3 
22.9669 20.1024 8.59657 3 
21.5311 18.6681 10.0336 3 
22.9668 17.2333 11.4699 3 
22.9672 20.1037 11.4687 3 
24.4027 18.6678 10.0332 3 
28.7099 17.232 8.59718 3 
25.838 17.2325 8.59779 3 
25.8391 20.1017 8.59583 3 
28.7101 17.2324 11.4691 3 
27.2752 18.6669 10.0323 3 
25.8384 17.2329 11.4693 3 
25.8406 20.102 11.4672 3 
2.87342 22.9715 8.59416 3 
0.00712396 22.9664 8.58899 3 
1.44137 24.4051 10.0276 3 
1.4388 21.5343 10.0301 3 
2.87322 22.9716 11.4674 3 
0.00777424 22.9663 11.4641 3 
5.74093 22.9736 8.59621 3 
4.30667 21.5371 10.0321 3 
7.17512 24.4099 10.0324 3 
4.30704 24.409 10.0315 3 
7.17501 21.538 10.0326 3 
5.74085 22.9738 11.4685 3 
8.60923 22.9736 8.59617 3 
11.4768 22.9714 8.59401 3 
10.0432 24.4089 10.0315 3 
10.0434 21.537 10.0319 3 
8.60929 22.9737 11.4684 3 
11.477 22.9714 11.4672 3 
14.3431 22.9662 8.58882 3 
15.7686 24.3926 10.0152 3 
12.9089 24.4049 10.0275 3 
14.3424 22.9661 11.464 3 
15.7825 21.5333 10.0277 3 
12.9113 21.5342 10.03 3 
17.2214 22.9693 8.59188 3 
20.0952 22.9709 8.59346 3 
18.6589 21.5366 10.0306 3 
18.6593 24.4031 10.0257 3 
17.2143 22.9656 11.4595 3 
20.0955 22.9729 11.4665 3 
22.9672 22.971 8.59354 3 
24.4034 21.5367 10.0307 3 
21.5312 24.4044 10.0269 3 
22.9669 22.973 11.4665 3 
24.403 24.4033 10.0258 3 
21.5312 21.5374 10.0316 3 
25.8409 22.9694 8.59204 3 
27.2798 21.5334 10.0279 3 
25.848 22.9658 11.4596 3 
27.2937 24.3928 10.0153 3 
2.87335 25.845 8.59426 3 
0.00785955 25.8418 8.58893 3 
0.0104727 25.8378 11.4602 3 
2.87296 25.8444 11.4668 3 
1.44015 27.2807 10.0284 3 
5.74093 25.8461 8.59635 3 
7.17519 27.2823 10.0327 3 
5.74076 25.846 11.4684 3 
4.3066 27.282 10.0319 3 
8.60941 25.846 8.59631 3 
11.477 25.8447 8.59414 3 
11.4774 25.8441 11.4667 3 
8.60959 25.8459 11.4684 3 
10.0438 27.2819 10.0319 3 
14.3424 25.8415 8.58875 3 
12.9102 27.2804 10.0283 3 
14.3398 25.8375 11.4601 3 
15.7705 27.2763 10.0181 3 
17.2142 25.8371 8.5883 3 
20.0954 25.8441 8.59566 3 
20.0644 28.6961 11.4596 3 
18.6432 27.2673 10.0208 3 
20.1057 25.8416 11.4642 3 
17.1804 25.8064 11.429 3 
22.9669 25.8442 8.59573 3 
21.5311 27.2826 10.0364 3 
22.9566 25.8418 11.4642 3 
24.419 27.2675 10.0208 3 
22.9977 28.6962 11.4595 3 
25.8481 25.8373 8.58843 3 
27.2918 27.2766 10.0182 3 
25.8818 25.8067 11.4291 3 
1.43713 1.44257 12.9033 3 
1.4358 1.44276 15.777 3 
2.87087 2.87877 14.3411 3 
2.87068 0.006064 14.3403 3 
0.00366188 0.0039287 14.3381 3 
0.00286749 2.87869 14.3411 3 
4.30523 1.44278 15.777 3 
4.3056 1.44252 12.9048 3 
7.17528 1.44249 12.9051 3 
7.17524 1.44271 15.777 3 
5.74034 2.87861 14.3412 3 
5.74027 0.00659153 14.3408 3 
10.0449 1.44235 12.9048 3 
8.61021 2.87852 14.3412 3 
11.4797 0.00579901 14.3403 3 
10.0452 1.44262 15.777 3 
11.4795 2.87859 14.3411 3 
8.6102 0.00646622 14.3408 3 
12.9132 1.44228 12.9033 3 
15.7768 1.4448 12.8969 3 
14.3473 2.87847 14.3411 3 
12.9144 1.4425 15.777 3 
15.7835 1.44241 15.777 3 
14.3465 0.00360142 14.3382 3 
18.6143 1.47463 12.8553 3 
17.215 2.8728 14.3467 3 
18.6969 1.44237 15.777 5 
20.1086 2.84127 14.3782 5 
21.531 1.43786 12.8027 5 
24.4477 1.47487 12.8552 3 
22.9533 2.84136 14.3782 5 
21.5309 0.693137 15.0279 5 
24.3651 1.44257 15.7769 5 
27.2854 1.44509 12.8969 3 
25.847 2.87299 14.3467 3 
27.2786 1.44268 15.777 3 
1.43733 4.31522 12.9047 3 
1.43772 7.18861 12.9034 3 
2.8716 5.75157 14.3408 3 
1.437 4.31647 15.7773 3 
1.43855 7.1899 15.7765 3 
0.00527838 5.75477 14.3385 3 
4.30585 4.31468 12.9052 3 
7.17533 4.31445 12.9053 3 
4.306 7.1868 12.9049 3 
7.17528 7.18633 12.9053 3 
5.74055 5.75059 14.3413 3 
4.30556 4.31501 15.7773 3 
4.30615 7.18726 15.7771 3 
7.17527 4.31465 15.7773 3 
7.17527 7.18659 15.7772 3 
10.0447 4.3146 12.9052 3 
10.0445 7.18683 12.905 3 
11.4788 5.7515 14.3408 3 
8.61002 5.75057 14.3413 3 
10.0449 4.31491 15.7774 3 
10.0443 7.18724 15.7771 3 
12.913 4.31505 12.9046 3 
15.7809 4.31442 12.9052 3 
12.9126 7.18865 12.9034 3 
15.7791 7.19317 12.8988 3 
15.7769 4.32264 15.7748 3 
12.9133 4.31632 15.7773 3 
12.9117 7.18986 15.7765 3 
15.7749 7.19738 15.7735 3 
14.3449 5.75468 14.3385 3 
18.6578 4.30636 12.9133 3 
18.6552 7.19014 12.9013 3 
18.6144 4.36428 15.7449 3 
18.6502 7.19348 15.7776 3 
17.2035 5.76731 14.3267 3 
20.0858 5.76116 14.3318 3 
24.4041 4.30642 12.9133 3 
21.5309 4.29675 12.923 3 
21.531 7.18643 12.9052 3 
24.4067 7.19014 12.9013 3 
21.5309 4.41698 15.7817 5 
21.531 7.18662 15.7866 3 
24.4118 7.19349 15.7775 3 
22.9761 5.76116 14.3318 3 
24.4475 4.36433 15.7449 3 
27.2812 4.3146 12.9052 3 
27.2831 7.19319 12.8988 3 
27.2852 4.3228 15.7747 3 
27.2872 7.19745 15.7734 3 
25.8585 5.76735 14.3267 3 
1.43623 10.0598 12.9036 3 
1.43721 10.0608 15.7763 3 
2.87179 8.62382 14.3403 3 
2.87057 11.4943 14.3405 3 
0.00401566 8.62707 14.3385 3 
4.30569 10.0583 12.9047 3 
7.17519 10.0578 12.905 3 
4.30605 10.0589 15.7768 3 
7.17517 10.0582 15.777 3 
5.74033 11.4935 14.3409 3 
5.7406 8.62245 14.341 3 
10.0446 10.0584 12.9047 3 
11.4797 11.4945 14.3405 3 
8.60993 11.4936 14.3409 3 
8.60986 8.62249 14.3411 3 
10.0443 10.059 15.7768 3 
11.4786 8.62389 14.3404 3 
12.914 10.0599 12.9037 3 
15.7858 10.0595 12.9037 3 
12.9131 10.061 15.7764 3 
15.7843 10.0607 15.7767 3 
14.3507 11.4946 14.3405 3 
14.3462 8.62713 14.3385 3 
18.6593 10.057 12.9058 3 
17.219 8.62585 14.3392 3 
18.6576 10.0573 15.7785 3 
20.0946 8.62084 14.3433 3 
20.0954 11.4909 14.3429 3 
17.2231 11.4929 14.3414 3 
21.531 10.0557 12.907 3 
24.4027 10.0569 12.9057 3 
22.9666 11.4909 14.3429 3 
22.9673 8.62084 14.3433 3 
21.531 10.0546 15.7806 3 
24.4045 10.0572 15.7785 3 
27.2764 10.0594 12.9036 3 
25.8389 11.4928 14.3413 3 
25.843 8.62584 14.3391 3 
27.2779 10.0606 15.7767 3 
28.7114 11.4944 14.3404 3 
1.4339 12.9287 12.9048 3 
1.43337 15.7979 12.9051 3 
1.43434 12.9293 15.7768 3 
1.43337 15.7983 15.7771 3 
2.86918 14.3635 14.3409 3 
4.3049 12.9285 12.9049 3 
4.30451 15.7979 12.9051 3 
7.17508 12.9283 12.905 3 
7.175 15.7979 12.9051 3 
4.30455 15.7984 15.7771 3 
4.30513 12.9291 15.7769 3 
7.17507 12.9288 15.7769 3 
7.17498 15.7984 15.7771 3 
5.73989 14.3635 14.341 3 
10.0453 12.9286 12.9049 3 
10.0455 15.798 12.9051 3 
11.4809 14.3637 14.3409 3 
10.045 12.9292 15.7769 3 
10.0455 15.7985 15.777 3 
8.61016 14.3635 14.341 3 
12.9163 12.9289 12.9048 3 
15.7882 12.9282 12.9052 3 
12.9167 15.798 12.9051 3 
15.7884 15.7981 12.9053 3 
14.3525 14.3635 14.341 3 
12.9158 12.9295 15.7768 3 
15.7876 12.9287 15.7772 3 
12.9167 15.7986 15.777 3 
15.7884 15.7986 15.777 3 
18.66 12.9271 12.9062 3 
18.6599 15.7981 12.9057 3 
20.0955 14.3624 14.342 3 
18.6594 12.9273 15.7778 3 
18.6598 15.7986 15.777 3 
17.2242 14.363 14.3415 3 
21.531 12.9266 12.9067 3 
21.5311 15.7981 12.906 3 
24.4023 15.798 12.9058 3 
24.4021 12.927 12.9062 3 
21.5311 12.9266 15.7783 3 
21.5311 15.7985 15.777 3 
24.4025 15.7984 15.7771 3 
24.4027 12.9272 15.7777 3 
22.9666 14.3624 14.342 3 
27.274 12.928 12.9052 3 
27.2738 15.7979 12.9054 3 
28.7097 14.3633 14.3411 3 
25.838 14.3628 14.3415 3 
27.2746 12.9285 15.7772 3 
27.2739 15.7983 15.7771 3 
1.43478 18.6669 12.9049 3 
1.43442 18.6675 15.7773 3 
2.87112 20.1018 14.3412 3 
2.86936 17.2327 14.3412 3 
0.000428766 20.1017 14.3409 3 
4.30533 18.6671 12.905 3 
7.17497 18.6676 12.9051 3 
5.73992 17.2328 14.3411 3 
4.30515 18.6677 15.7773 3 
7.17496 18.6681 15.7772 3 
5.7404 20.1028 14.3411 3 
10.0446 18.6672 12.905 3 
11.4789 20.1018 14.3411 3 
8.60956 20.1029 14.3411 3 
11.4806 17.2328 14.3411 3 
10.0448 18.6678 15.7772 3 
8.60999 17.2329 14.3411 3 
14.3522 17.233 14.341 3 
12.9153 18.6669 12.9048 3 
15.787 18.6676 12.9045 3 
14.3497 20.1016 14.3408 3 
12.9157 18.6676 15.7772 3 
15.7875 18.6684 15.7769 3 
20.0954 17.2341 14.341 3 
18.659 18.6689 12.9047 3 
17.222 20.1034 14.3401 3 
17.2239 17.2336 14.341 3 
18.6594 18.6697 15.7763 3 
20.0946 20.1055 14.3396 3 
21.5312 18.6694 12.9051 3 
24.4033 18.6688 12.9047 3 
22.9669 17.234 14.341 3 
21.5312 18.6704 15.7757 3 
24.4029 18.6697 15.7763 3 
22.9678 20.1054 14.3396 3 
28.71 17.2329 14.3411 3 
25.8402 20.1034 14.3402 3 
25.8384 17.2335 14.3411 3 
27.2752 18.6676 12.9047 3 
27.2748 18.6684 15.777 3 
1.43828 21.5351 12.9042 3 
2.87252 22.9725 14.3409 3 
1.4374 21.5362 15.7777 3 
1.43873 24.4074 15.7775 3 
0.00602418 22.9683 14.3409 3 
1.44005 24.4059 12.9029 3 
4.30641 21.5375 12.9048 3 
7.17515 24.4102 12.9046 3 
4.30653 24.4094 12.9043 3 
7.17504 21.5383 12.9049 3 
4.30606 21.5381 15.7772 3 
7.175 21.5388 15.7771 3 
4.30616 24.41 15.7769 3 
7.17509 24.4106 15.7768 3 
5.74066 22.9742 14.3409 3 
10.0437 24.4092 12.9043 3 
10.0436 21.5374 12.9047 3 
8.60948 22.9742 14.3409 3 
10.044 21.5381 15.7772 3 
10.0441 24.4098 15.7769 3 
11.4777 22.9723 14.3408 3 
12.9102 24.4056 12.9028 3 
15.7705 24.3954 12.8988 3 
12.9118 21.535 12.904 3 
15.7827 21.5347 12.9026 3 
12.9127 21.5361 15.7777 3 
15.7841 21.5363 15.7773 3 
12.9115 24.4071 15.7775 3 
15.7748 24.3995 15.7805 3 
14.3442 22.968 14.3407 3 
18.6433 24.398 12.8897 3 
18.6562 21.5379 12.9017 3 
17.2159 22.9691 14.3386 3 
20.0908 22.9756 14.3359 3 
18.6576 21.5397 15.7755 3 
18.6502 24.4034 15.7764 3 
22.9716 22.9757 14.3359 3 
24.419 24.3982 12.8898 3 
24.4062 21.538 12.9018 3 
21.5311 24.4138 12.905 3 
21.5312 21.5403 12.9039 3 
21.5312 21.5424 15.7734 3 
24.4047 21.5398 15.7756 3 
24.4121 24.4036 15.7764 3 
21.5311 24.4104 15.7673 3 
27.2918 24.3957 12.8988 3 
27.2795 21.5349 12.9028 3 
27.2781 21.5365 15.7774 3 
25.8464 22.9693 14.3387 3 
27.2875 24.3998 15.7806 3 
1.43834 27.2798 12.902 3 
0.00697467 25.8404 14.3394 3 
2.8719 25.8451 14.3403 3 
1.43711 27.281 15.7767 3 
7.17523 27.2824 12.9047 3 
4.30587 27.282 12.9043 3 
5.74051 25.8464 14.3406 3 
4.30557 27.2825 15.7766 3 
7.17518 27.2827 15.7767 3 
11.4784 25.8448 14.3402 3 
8.60983 25.8462 14.3406 3 
10.0445 27.2818 12.9043 3 
10.0448 27.2822 15.7767 3 
15.7712 27.2694 12.8921 3 
12.9119 27.2794 12.902 3 
12.9131 27.2807 15.7767 3 
15.7768 27.2742 15.7792 3 
14.3432 25.84 14.3393 3 
20.0644 25.8369 14.3185 3 
17.1922 25.8204 14.3395 3 
18.5559 27.1848 12.8074 3 
19.6934 28.5683 14.1909 5 
18.6143 27.2325 15.8091 3 
17.1884 28.7084 14.331 3 
24.5062 27.1851 12.8074 3 
21.5311 27.3341 12.9566 5 
23.3686 28.5685 14.1908 5 
22.9978 25.837 14.3185 3 
21.531 27.1799 15.7722 5 
24.4477 27.2328 15.8091 3 
25.87 25.8207 14.3396 3 
27.291 27.2698 12.892 3 
27.2854 27.2745 15.7793 3 
25.8736 28.7087 14.331 3 
1.43702 1.44294 18.6507 3 
2.87059 2.87945 17.2137 3 
2.87177 2.87934 20.0865 3 
2.87157 0.00641179 20.0857 3 
0.0035273 2.8815 17.2158 3 
0.00288486 0.00675686 17.2128 3 