ITEM: TIMESTEP
94041
ITEM: NUMBER OF ATOMS
18
ITEM: BOX BOUNDS pp pp pp
0.0000000000000000e+00 2.8712000000000000e+01
0.0000000000000000e+00 2.8712000000000000e+01
0.0000000000000000e+00 2.8712000000000000e+01
ITEM: ATOMS x y z c_cna 
22.9658 0.00294123 11.3676 5 
22.9659 25.8992 11.5217 5 
20.1318 0.00757723 14.342 5 
21.5435 1.40639 12.9432 5 
24.3882 1.40633 12.9433 5 
22.9659 0.756566 15.0911 5 
21.1282 1.59368 15.9282 5 
22.9658 2.98191 14.3467 5 
24.8035 1.5937 15.9282 5 
25.8 0.00753951 14.342 5 
22.9658 27.9705 13.5927 5 
21.1282 27.1334 12.756 5 
22.9659 25.7452 14.3374 5 
21.5436 27.3208 15.7408 5 
24.3883 27.3208 15.7408 5 
24.8035 27.1334 12.756 5 
22.9659 2.82789 17.1624 5 
22.9659 0.0121677 17.3165 5 
ITEM: TIMESTEP
94042
ITEM: NUMBER OF ATOMS
18
ITEM: BOX BOUNDS pp pp pp
0.0000000000000000e+00 2.8712000000000000e+01
0.0000000000000000e+00 2.8712000000000000e+01
0.0000000000000000e+00 2.8712000000000000e+01
ITEM: ATOMS x y z c_cna 
22.9658 0.00294123 11.3676 5 
22.9659 25.8992 11.5217 5 
20.1318 0.00757723 14.342 5 
21.5435 1.40639 12.9432 5 
24.3882 1.40633 12.9433 5 
22.9659 0.756566 15.0911 5 
21.1282 1.59368 15.9282 5 
22.9658 2.98191 14.3467 5 
24.8035 1.5937 15.9282 5 
25.8 0.00753951 14.342 5 
22.9658 27.9705 13.5927 5 
21.1282 27.1334 12.756 5 
22.9659 25.7452 14.3374 5 
21.5436 27.3208 15.7408 5 
24.3883 27.3208 15.7408 5 
24.8035 27.1334 12.756 5 
22.9659 2.82789 17.1624 5 
22.9659 0.0121677 17.3165 5 
