ITEM: TIMESTEP
94041
ITEM: NUMBER OF ATOMS
2001
ITEM: BOX BOUNDS pp pp pp
0.0000000000000000e+00 2.8712000000000000e+01
0.0000000000000000e+00 2.8712000000000000e+01
0.0000000000000000e+00 2.8712000000000000e+01
ITEM: ATOMS x y z c_cna 
1.43282 1.44377 1.42132 3 
2.86903 2.88013 2.85597 3 
2.86946 0.00808202 2.85543 3 
4.3043 1.44396 1.42104 3 
7.17494 1.44394 1.4211 3 
5.73997 2.88008 2.85603 3 
5.74022 0.00808756 2.85555 3 
10.0451 1.44391 1.42108 3 
8.61001 2.87996 2.85628 3 
11.4801 2.88002 2.85594 3 
8.61 0.00797587 2.85587 3 
11.4798 0.00798444 2.85547 3 
12.9157 1.44387 1.42091 3 
15.7872 1.44364 1.42114 3 
14.351 2.88003 2.85577 3 
14.3505 0.00794674 2.85524 3 
18.659 1.44315 1.4217 3 
17.2229 2.87946 2.85646 3 
20.0949 2.87839 2.85754 3 
20.0943 0.00691316 2.85737 3 
17.2223 0.00757123 2.85607 3 
22.966 2.8779 2.85807 3 
21.5304 1.44261 1.4222 3 
22.966 0.00642696 2.85815 3 
24.4017 1.44265 1.42232 3 
28.7097 0.00766937 2.85629 3 
28.7091 2.87954 2.85672 3 
27.2731 1.44324 1.42191 3 
25.8372 2.87843 2.85776 3 
25.8378 0.00697657 2.85755 3 
1.43248 4.31544 1.42169 3 
1.43203 7.18673 1.42203 3 
2.86842 5.75158 2.8565 3 
4.30405 4.31579 1.42147 3 
4.30366 7.1872 1.42186 3 
7.17485 4.31583 1.42152 3 
7.17472 7.18729 1.42185 3 
5.73963 5.75168 2.85651 3 
10.0452 4.31577 1.42146 3 
10.0454 7.18728 1.4218 3 
8.61008 5.75159 2.85665 3 
11.4805 5.75165 2.85639 3 
15.7876 4.31536 1.4215 3 
12.916 4.3157 1.42135 3 
12.9165 7.18716 1.42172 3 
15.788 7.18668 1.42184 3 
14.3516 5.75154 2.85633 3 
18.6593 4.31462 1.4219 3 
18.6596 7.18602 1.42207 3 
17.2235 5.75085 2.85684 3 
20.0951 5.75002 2.85748 3 
21.5306 4.314 1.42222 3 
21.5306 7.18558 1.42223 3 
22.966 5.74967 2.85774 3 
24.4014 7.1856 1.4223 3 
24.4016 4.31402 1.42233 3 
28.7085 5.75089 2.85707 3 
27.2728 4.31467 1.42211 3 
27.2725 7.18605 1.42223 3 
25.8369 5.75004 2.85763 3 
1.43159 10.0576 1.4221 3 
2.8677 8.62235 2.85702 3 
2.86724 11.4927 2.85704 3 
4.30317 10.058 1.42199 3 
7.17452 10.0581 1.42191 3 
5.73917 8.62264 2.85688 3 
5.73879 11.4929 2.85683 3 
10.0456 10.0581 1.42185 3 
8.61012 8.62263 2.85688 3 
11.481 8.62265 2.85676 3 
8.61009 11.4929 2.85677 3 
11.4814 11.4929 2.85675 3 
12.917 10.058 1.42184 3 
15.7885 10.0575 1.42197 3 
14.3524 8.62237 2.85685 3 
14.3529 11.4927 2.85692 3 
18.6598 10.0571 1.42214 3 
17.224 8.62176 2.85724 3 
20.0952 8.62126 2.85763 3 
17.2243 11.4924 2.85724 3 
20.0953 11.4922 2.85752 3 
21.5307 10.0569 1.42225 3 
22.966 8.6211 2.85777 3 
22.966 11.4922 2.85763 3 
24.4014 10.057 1.42228 3 
28.7078 11.4924 2.8573 3 
28.708 8.62178 2.85739 3 
27.2723 10.0572 1.42219 3 
25.8368 8.62129 2.85768 3 
25.8368 11.4922 2.85753 3 
1.43143 12.928 1.42165 3 
1.43163 15.7983 1.42078 3 
2.86735 14.3628 2.85632 3 
4.30313 15.7981 1.42063 3 
4.3029 12.9282 1.42154 3 
7.17439 12.9282 1.42147 3 
7.17447 15.7981 1.42058 3 
5.73887 14.3628 2.85614 3 
10.0457 12.9282 1.42143 3 
10.0455 15.7981 1.42057 3 
8.61003 14.3628 2.8561 3 
11.4812 14.3628 2.85608 3 
12.9172 12.9282 1.42147 3 
15.7887 12.928 1.42162 3 
12.9169 15.7981 1.42062 3 
15.7884 15.7983 1.42078 3 
14.3527 14.3628 2.8563 3 
18.6598 12.9279 1.42175 3 
18.6597 15.7984 1.42094 3 
17.2241 14.3628 2.8566 3 
20.0952 14.3629 2.85684 3 
21.5307 12.9279 1.42183 3 
21.5306 15.7985 1.42099 3 
22.966 14.3629 2.85693 3 
24.4014 15.7985 1.42099 3 
24.4014 12.9279 1.42184 3 
28.7079 14.3629 2.8566 3 
27.2723 12.928 1.42176 3 
27.2724 15.7984 1.42092 3 
25.8368 14.3629 2.85683 3 
1.43214 18.6687 1.42005 3 
2.86813 17.2327 2.85518 3 
2.86937 20.103 2.85416 3 
4.30378 18.6684 1.41985 3 
7.17471 18.6685 1.41995 3 
5.73954 17.2326 2.8551 3 
5.74015 20.1034 2.85452 3 
10.0452 18.6685 1.41994 3 
8.60999 17.2328 2.85528 3 
11.4804 17.2326 2.85506 3 
8.60992 20.1037 2.8549 3 
11.4797 20.1034 2.85444 3 
12.9161 18.6683 1.41978 3 
15.7878 18.6687 1.41999 3 
14.3519 17.2326 2.85514 3 
14.3506 20.103 2.85405 3 
18.6594 18.6691 1.42021 3 
17.2236 17.233 2.85549 3 
20.095 17.2333 2.85573 3 
17.2229 20.1035 2.85463 3 
20.0948 20.1042 2.85507 3 
21.5306 18.6694 1.42032 3 
24.4015 18.6694 1.42033 3 
22.966 17.2334 2.85583 3 
22.9661 20.1044 2.85525 3 
28.7091 20.1036 2.85472 3 
28.7084 17.233 2.85553 3 
27.2727 18.6692 1.42023 3 
25.8371 17.2333 2.85577 3 
25.8373 20.1042 2.85513 3 
1.43284 21.5398 1.41984 3 
2.86988 22.975 2.85422 3 
1.43313 24.4117 1.42028 3 
4.30429 21.5397 1.41973 3 
7.17487 21.5398 1.41992 3 
5.74038 22.9754 2.85462 3 
7.17495 24.4117 1.42024 3 
4.30446 24.4117 1.4201 3 
10.045 21.5398 1.41988 3 
8.60993 22.9756 2.85502 3 
11.4795 22.9753 2.85453 3 
10.0449 24.4117 1.42019 3 
12.9156 21.5396 1.41962 3 
15.7871 21.5397 1.41974 3 
14.3501 22.9749 2.85405 3 
15.7869 24.4116 1.42014 3 
12.9154 24.4116 1.41997 3 
18.6591 21.5404 1.42019 3 
17.2219 22.9748 2.85456 3 
20.0944 22.9758 2.85557 3 
18.6587 24.4119 1.42065 3 
21.5305 21.5409 1.42041 3 
24.4016 21.541 1.42044 3 
22.966 22.9763 2.85587 3 
21.5303 24.4125 1.42105 3 
24.4018 24.4126 1.4211 3 
28.7101 22.9749 2.85469 3 
27.273 21.5405 1.42025 3 
25.8376 22.9759 2.85565 3 
27.2734 24.412 1.42077 3 
1.43305 27.2838 1.42085 3 
2.86979 25.8476 2.85481 3 
4.30442 27.2839 1.42059 3 
7.17498 27.2839 1.42068 3 
5.74035 25.8478 2.85506 3 
10.045 27.2838 1.42063 3 
8.60998 25.8478 2.8554 3 
11.4796 25.8477 2.85495 3 
12.9155 27.2838 1.42047 3 
15.787 27.2837 1.42071 3 
14.3502 25.8475 2.85462 3 
18.6587 27.2836 1.42128 3 
17.2219 25.8472 2.85537 3 
20.0939 25.8473 2.85659 3 
21.5302 27.2836 1.42179 3 
22.966 25.8478 2.85714 3 
24.4018 27.2837 1.42185 3 
28.7101 25.8473 2.85554 3 
27.2734 27.2837 1.42146 3 
25.8381 25.8474 2.85669 3 
1.43459 1.44444 4.29034 3 
1.4391 1.44639 7.15776 3 
2.87132 2.88123 5.72501 3 
2.87233 0.00856255 5.72398 3 
0.00100047 0.00816788 5.72424 3 
4.30566 1.44442 4.29035 3 
7.17527 1.44408 4.29117 3 
4.3068 1.44456 7.16101 3 
7.17547 1.44386 7.1624 3 
5.7407 2.88024 5.72644 3 
5.74104 0.00809805 5.72593 3 
10.0447 1.44404 4.29112 3 
10.0446 1.44385 7.16232 3 
8.61002 2.87988 5.72696 3 
11.4794 2.88019 5.72633 3 
11.479 0.00803897 5.72577 3 
8.61003 0.00790426 5.72658 3 
12.9144 1.44434 4.29017 3 
15.7854 1.44434 4.29009 3 
12.9133 1.44452 7.16083 3 
15.7809 1.44633 7.15755 3 
14.3487 2.88114 5.72477 3 
14.3477 0.00848496 5.72376 3 
18.6579 1.44336 4.29178 3 
18.6538 1.44565 7.15884 3 
17.2205 2.88103 5.72514 3 
20.0942 2.87893 5.72771 3 
20.0924 0.00631298 5.72745 3 
17.219 0.00814452 5.72402 3 
21.5303 1.44174 4.29374 3 
24.4017 1.44178 4.29385 3 
21.5295 1.44143 7.16389 3 
22.9659 2.87767 5.72901 3 
24.4023 1.44143 7.16396 3 
22.966 0.0042088 5.73013 3 
27.2741 1.44343 4.29204 3 
28.7114 2.88112 5.7254 3 
27.2781 1.44564 7.15899 3 
25.8377 2.87898 5.72789 3 
25.8395 0.00630624 5.7276 3 
1.43363 4.31629 4.29111 3 
1.43251 7.18695 4.29206 3 
1.43678 4.31836 7.16 3 
1.43364 7.18726 7.16272 3 
2.86995 5.75244 5.72625 3 
4.30423 7.18733 4.29172 3 
4.30507 4.3163 4.291 3 
7.17513 4.31588 4.29158 3 
7.17491 7.18715 4.29195 3 
4.305 7.18734 7.16259 3 
7.17535 4.31571 7.16273 3 
4.30614 4.31653 7.16181 3 
5.74024 5.75174 5.72696 3 
7.17516 7.18702 7.1629 3 
10.045 4.31583 4.29152 3 
10.0453 7.18715 4.29188 3 
10.0448 4.31565 7.16265 3 
8.61011 5.75145 5.72726 3 
10.0451 7.187 7.16286 3 
11.4799 5.75172 5.72683 3 
12.915 4.31623 4.29082 3 
15.7864 4.3162 4.29085 3 
12.9159 7.18734 4.29156 3 
15.7875 7.18698 4.29184 3 
12.914 4.31651 7.1616 3 
15.7832 4.3183 7.15975 3 
12.9151 7.18735 7.16245 3 
14.3501 5.75243 5.72603 3 
15.7863 7.18726 7.16254 3 
18.6588 4.31505 4.29213 3 
18.6594 7.1861 4.29267 3 
18.6567 4.31714 7.16123 3 
17.2223 5.75187 5.72674 3 
18.6588 7.18588 7.16394 3 
20.0948 5.75043 5.72819 3 
21.5305 4.31398 4.29317 3 
21.5306 7.18548 4.29319 3 
24.4014 7.18552 4.29327 3 
24.4014 4.314 4.29328 3 
21.5302 4.3148 7.16371 3 
21.5305 7.18476 7.16511 3 
22.9659 5.74986 5.72881 3 
24.4014 7.18479 7.16518 3 
24.4016 4.31478 7.16383 3 
28.7096 5.75186 5.72699 3 
27.2731 4.31513 4.29235 3 
27.2726 7.18609 4.29284 3 
27.2752 4.31715 7.16145 3 
25.8371 5.75044 5.72835 3 
27.273 7.18593 7.1641 3 
1.43175 10.0573 4.29255 3 
1.43252 10.0578 7.16296 3 
2.86837 8.62245 5.72742 3 
2.86769 11.4928 5.72749 3 
7.17464 10.0577 4.29207 3 
4.3034 10.0577 4.29215 3 
4.30422 10.0581 7.16257 3 
5.73956 8.62251 5.72734 3 
7.1749 10.0578 7.16276 3 
5.73917 11.4929 5.72722 3 
10.0456 10.0577 4.29201 3 
8.61014 8.62244 5.72743 3 
10.0453 10.0579 7.16276 3 
11.4806 8.62254 5.72727 3 
8.61011 11.4928 5.72721 3 
11.481 11.4929 5.72716 3 
12.9167 10.0577 4.29203 3 
15.7883 10.0573 4.2924 3 
12.9159 10.0581 7.16253 3 
14.3517 8.6225 5.72729 3 
15.7875 10.0579 7.16284 3 
14.3524 11.4928 5.72739 3 
18.6598 10.0568 4.29296 3 
20.0952 8.62095 5.72888 3 
17.2236 8.62179 5.72802 3 
18.6594 10.0572 7.16374 3 
17.224 11.4924 5.72796 3 
20.0952 11.4922 5.72854 3 
21.5307 10.0565 4.29335 3 
24.4014 10.0565 4.29335 3 
21.5306 10.0567 7.16437 3 
22.966 8.62069 5.72923 3 
22.966 11.4921 5.72876 3 
24.4014 10.0567 7.1644 3 
28.7081 11.4924 5.72807 3 
28.7084 8.62176 5.72816 3 
27.2723 10.0568 4.29306 3 
25.8368 8.62099 5.72896 3 
27.2726 10.0571 7.16385 3 
25.8368 11.4922 5.72856 3 
1.43162 12.9276 4.2922 3 
1.43217 15.7975 4.29123 3 
1.43209 12.9278 7.16316 3 
1.43291 15.7972 7.16232 3 
2.8679 14.3625 5.72702 3 
7.17454 12.9277 4.29167 3 
4.3032 12.9277 4.29182 3 
4.30384 15.7973 4.29088 3 
7.17478 15.7974 4.29096 3 
4.30439 15.7971 7.16214 3 
4.3037 12.9279 7.1627 3 
7.17476 12.9278 7.16259 3 
5.73928 14.3625 5.72682 3 
7.17501 15.7973 7.16224 3 
10.0456 12.9278 4.29163 3 
10.0453 15.7974 4.29093 3 
10.0454 12.9278 7.16259 3 
8.61007 14.3625 5.72678 3 
10.0451 15.7973 7.16222 3 
11.4809 14.3625 5.72679 3 
15.7885 12.9276 4.29215 3 
12.9162 15.7973 4.29083 3 
12.9169 12.9277 4.29175 3 
15.7879 15.7975 4.2912 3 
12.9164 12.9279 7.16268 3 
15.788 12.9278 7.16306 3 
12.9157 15.7971 7.1621 3 
14.3522 14.3625 5.72698 3 
15.7872 15.7973 7.16223 3 
18.6598 12.9275 4.2926 3 
18.6594 15.7978 4.29165 3 
18.6595 12.9277 7.16374 3 
17.2238 14.3627 5.72751 3 
18.6591 15.7978 7.16297 3 
20.0951 14.3628 5.72804 3 
21.5307 12.9275 4.29287 3 
21.5305 15.7979 4.29191 3 
24.4014 12.9275 4.29286 3 
24.4015 15.7979 4.29192 3 
21.5306 12.9276 7.16422 3 
21.5304 15.7981 7.16349 3 
22.966 14.3628 5.72823 3 
24.4014 12.9276 7.16424 3 
24.4016 15.798 7.1635 3 
28.7083 14.3626 5.72758 3 
27.2723 12.9275 4.29262 3 
27.2726 15.7977 4.29167 3 
27.2725 12.9276 7.16382 3 
25.837 14.3627 5.72807 3 
27.273 15.7977 7.16302 3 
1.43347 18.667 4.28956 3 
1.43564 18.6654 7.15969 3 
2.86942 17.2315 5.72552 3 
2.87257 20.1002 5.72273 3 
4.30542 18.6668 4.28936 3 
7.17525 18.6677 4.29019 3 
4.30648 18.6661 7.16072 3 
5.74022 17.2319 5.72591 3 
7.17556 18.6674 7.16167 3 
5.74133 20.1024 5.72491 3 
10.0447 18.6676 4.29014 3 
8.61004 17.2323 5.7262 3 
10.0445 18.6674 7.16164 3 
11.4798 17.2319 5.72587 3 
8.61 20.1032 5.72571 3 
11.4787 20.1024 5.72484 3 
12.9145 18.6668 4.28926 3 
15.7866 18.667 4.28949 3 
12.9136 18.6661 7.16064 3 
14.3506 17.2316 5.72543 3 
15.7844 18.6654 7.15958 3 
14.3475 20.1002 5.72261 3 
18.6588 18.6676 4.2901 3 
17.2229 17.2322 5.72606 3 
18.6581 18.6669 7.16086 3 
20.0947 17.2327 5.72669 3 
17.2211 20.101 5.72343 3 
20.0942 20.102 5.72451 3 
21.5304 18.668 4.29044 3 
24.4017 18.6679 4.29046 3 
21.5302 18.6675 7.16171 3 
22.966 17.2328 5.72692 3 
22.966 20.1023 5.72486 3 
24.4018 18.6675 7.16172 3 
28.7109 20.1009 5.72351 3 
27.2732 18.6676 4.29015 3 
28.7092 17.2321 5.72613 3 
25.8373 17.2326 5.7267 3 
27.274 18.6668 7.16091 3 
25.8378 20.102 5.72456 3 
1.43558 21.5371 4.28802 3 
1.43592 24.4101 4.28849 3 
1.44192 21.5314 7.15401 3 
2.87368 22.9727 5.72205 3 
1.44258 24.4067 7.15395 3 
0.00256769 22.9703 5.72114 3 
4.30641 21.5382 4.28869 3 
4.30645 24.411 4.289 3 
7.17545 21.5392 4.28997 3 
7.17551 24.4115 4.29023 3 
4.30809 24.41 7.15932 3 
4.30827 21.5366 7.15915 3 
7.17586 21.5388 7.16125 3 
5.74158 22.9746 5.72481 3 
7.17577 24.4112 7.16145 3 
10.0444 21.5391 4.2899 3 
10.0445 24.4114 4.29015 3 
10.0442 21.5388 7.16121 3 
8.60999 22.9752 5.72572 3 
11.4784 22.9746 5.7247 3 
10.0443 24.4111 7.16141 3 
12.9135 21.5382 4.28854 3 
15.7844 21.5371 4.28787 3 
12.9135 24.4109 4.28887 3 
15.7841 24.41 4.28832 3 
12.9118 21.5366 7.15904 3 
15.7781 21.5314 7.1539 3 
14.3463 22.9726 5.72188 3 
15.7774 24.4067 7.15378 3 
12.9119 24.4099 7.15915 3 
18.6581 21.5383 4.28931 3 
18.6563 21.5345 7.15698 3 
17.2175 22.9704 5.72101 3 
20.0938 22.9733 5.72436 3 
18.6492 24.4022 7.15329 3 
18.6566 24.4097 4.28976 3 
21.5303 21.5391 4.29 3 
24.4018 21.5391 4.29004 3 
24.4021 24.4113 4.29152 3 
21.53 24.4113 4.29147 3 
21.5301 21.536 7.15856 3 
22.9661 22.9741 5.72509 3 
24.402 21.536 7.15859 3 
21.5303 24.4091 7.16065 3 
24.4017 24.4092 7.16073 3 
27.274 21.5384 4.28942 3 
27.2755 24.4098 4.28986 3 
27.2757 21.5344 7.1571 3 
25.8383 22.9732 5.72446 3 
27.2828 24.4022 7.15344 3 
1.43537 27.2836 4.28952 3 
1.44091 27.2836 7.15594 3 
2.87318 25.8468 5.72289 3 
0.00238883 25.8454 5.72269 3 
4.30612 27.284 4.28968 3 
7.1754 27.2839 4.29071 3 
4.30739 27.2836 7.16016 3 
5.74136 25.8475 5.72529 3 
7.17562 27.2837 7.16192 3 
10.0446 27.2838 4.29065 3 
8.61004 25.8476 5.7261 3 
10.0445 27.2836 7.16188 3 
11.4787 25.8474 5.7252 3 
12.9139 27.2838 4.28951 3 
15.7846 27.2835 4.28931 3 
12.9126 27.2836 7.16 3 
14.3468 25.8468 5.72272 3 
15.7791 27.2836 7.15576 3 
18.6569 27.2828 4.29112 3 
17.2176 25.8454 5.72252 3 
18.6508 27.2814 7.15689 3 
20.0911 25.8445 5.72568 3 
21.5294 27.2823 4.2932 3 
24.4026 27.2823 4.29325 3 
21.5256 27.2787 7.16335 3 
22.966 25.8467 5.7281 3 
24.4063 27.2786 7.16343 3 
27.2751 27.2829 4.29132 3 
25.841 25.8445 5.72581 3 
27.2812 27.2814 7.15705 3 
2.87271 2.88149 8.59624 3 
2.87359 0.00836903 8.59497 3 
1.44027 1.44634 10.0301 3 
2.87218 2.88013 11.4697 3 
0.00603085 2.88599 8.59164 3 
0.00408629 2.8795 11.4703 3 
0.00822167 0.00996902 11.462 3 
0.0102572 0.0113566 8.5874 3 
2.87196 0.00742512 11.4684 3 
5.74093 2.87993 8.59811 3 
5.74103 0.00771996 8.59759 3 
4.30652 1.44397 10.0333 3 
7.17536 1.44348 10.0343 3 
5.74064 2.87956 11.4703 3 
5.74043 0.00738949 11.4699 3 
8.61005 2.87956 8.59855 3 
11.4792 2.87994 8.59796 3 
11.4791 0.00770864 8.5975 3 
8.61008 0.0075955 8.59823 3 
10.0448 1.44353 10.0342 3 
8.61008 2.87936 11.4705 3 
11.4795 2.87962 11.4703 3 
11.4797 0.00744715 11.4698 3 
8.61014 0.00747002 11.4702 3 
14.3473 2.88146 8.59606 3 
14.3464 0.00834354 8.59483 3 
12.9135 1.44401 10.0333 3 
15.7797 1.44633 10.03 3 
14.3478 2.88013 11.4697 3 
14.3481 0.00742924 11.4684 3 
17.2138 2.88599 8.59146 3 
20.0901 2.88346 8.59454 3 
20.0492 0.0398094 11.4203 3 
18.6383 1.45805 10.0173 3 
17.2158 2.87955 11.4702 3 
20.0927 2.87145 11.4783 3 
17.2097 0.0113281 8.58723 3 
20.085 0.00720278 8.59121 3 
17.2117 0.00996398 11.4619 3 
22.9659 2.8795 8.59832 3 
21.5207 1.45289 10.0235 3 
22.9658 2.86175 11.4879 3 
24.411 1.45287 10.0236 3 
22.9658 0.00294123 11.3676 5 
25.8417 2.88342 8.59466 3 
27.2935 1.458 10.0174 3 
25.839 2.87139 11.4783 3 
25.8468 0.00718603 8.5913 3 
25.8825 0.0396929 11.4203 3 
2.8709 5.75216 8.59779 3 
1.43733 4.31656 10.0333 3 
1.43675 7.18996 10.0316 3 
2.87267 5.75367 11.4684 3 
0.00601716 5.75823 11.4639 3 
5.74063 5.75156 8.59842 3 
4.30611 7.18811 10.0335 3 
4.30634 4.31602 10.0339 3 
7.17539 4.3154 10.0345 3 
7.17539 7.18714 10.0343 3 
5.74091 5.75179 11.4701 3 
8.61008 5.75124 8.59867 3 
11.4795 5.75152 8.59828 3 
10.0447 4.31541 10.0344 3 
10.0448 7.18712 10.0343 3 
8.61007 5.75126 11.4704 3 
11.4792 5.75177 11.47 3 
14.3491 5.75215 8.59764 3 
12.9137 4.31599 10.0338 3 
15.7826 4.31656 10.0332 3 
12.914 7.18809 10.0334 3 
15.7832 7.18993 10.0315 3 
14.3473 5.75364 11.4684 3 
17.2208 5.75162 8.59813 3 
20.0944 5.74905 8.60074 3 
18.6556 4.31445 10.0353 3 
18.6567 7.18852 10.0327 3 
17.2139 5.75824 11.4638 3 
20.0901 5.75524 11.4663 3 
22.9659 5.74784 8.60202 3 
21.5306 4.30966 10.0401 3 
21.5302 7.18611 10.035 3 
22.9658 5.75151 11.4702 3 
24.4015 7.18611 10.0351 3 
24.4011 4.30964 10.0401 3 
28.7111 5.75165 8.59832 3 
25.8374 5.74907 8.60086 3 
27.2762 4.31442 10.0354 3 
27.2751 7.18851 10.0328 3 
25.8416 5.75519 11.4664 3 
2.86994 8.62366 8.59753 3 
2.86843 11.4933 8.59837 3 
1.43363 10.0588 10.0337 3 
2.87132 8.62489 11.4688 3 
2.86905 11.4939 11.4699 3 
5.74024 8.62288 8.59822 3 
5.73963 11.4932 8.59826 3 
4.30508 10.0588 10.0337 3 
7.17515 10.0582 10.0341 3 
5.74071 8.62337 11.4698 3 
5.74 11.4937 11.4699 3 
8.61013 8.62253 8.5985 3 
11.4799 8.62289 8.59819 3 
8.61009 11.493 8.59837 3 
11.4805 11.4932 8.59829 3 
11.4794 8.62337 11.4698 3 
10.045 10.0581 10.0341 3 
8.61008 8.62281 11.4702 3 
8.61007 11.4934 11.47 3 
11.4801 11.4937 11.4699 3 
14.3501 8.62369 8.59745 3 
14.3517 11.4933 8.59832 3 
12.9151 10.0588 10.0337 3 
15.7864 10.0589 10.0337 3 
14.3487 8.62486 11.4688 3 
14.351 11.4939 11.4699 3 
17.2223 8.62305 8.59799 3 
20.0948 8.62163 8.5994 3 
17.2235 11.4929 8.59896 3 
20.095 11.4924 8.59981 3 
18.6588 10.0577 10.0348 3 
17.2205 8.62458 11.4688 3 
20.0941 8.6221 11.4708 3 
17.2229 11.4933 11.4704 3 
20.0948 11.4924 11.4714 3 
22.9659 8.62116 8.60003 3 
22.966 11.4922 8.6002 3 
21.5305 10.0567 10.0359 3 
22.9659 8.62089 11.4721 3 
22.9659 11.492 11.4719 3 
24.4014 10.0567 10.0359 3 
28.7096 8.62303 8.59814 3 
28.7114 8.62455 11.4688 3 
28.7085 11.4929 8.59905 3 
25.8371 8.62166 8.59953 3 
25.8369 11.4924 8.59986 3 
28.7091 11.4933 11.4704 3 
27.2731 10.0577 10.0348 3 
25.8377 8.62209 11.4709 3 
25.8371 11.4923 11.4714 3 
2.86834 14.3627 8.59846 3 
1.43254 12.9282 10.0345 3 
1.43318 15.7976 10.0342 3 
2.86851 14.3631 11.4703 3 
5.73954 14.3627 8.59827 3 
4.30409 12.9283 10.0342 3 
4.30457 15.7974 10.0341 3 
7.1749 12.9281 10.0341 3 
7.17508 15.7976 10.0341 3 
5.73969 14.3631 11.4702 3 
8.61006 14.3627 8.59825 3 
11.4806 14.3627 8.59827 3 
10.0453 12.9282 10.0342 3 
10.0451 15.7976 10.0341 3 
8.61006 14.3631 11.4701 3 
11.4805 14.3631 11.4701 3 
14.3518 14.3627 8.59841 3 
12.916 12.9283 10.0342 3 
15.7875 12.9282 10.0345 3 
12.9155 15.7975 10.0341 3 
15.7869 15.7977 10.0342 3 
14.3516 14.3632 11.4703 3 
17.2234 14.3629 8.59888 3 
20.0949 14.363 8.59954 3 
18.6592 12.9279 10.0352 3 
18.6586 15.7983 10.0346 3 
17.2231 14.3633 11.4705 3 
20.0946 14.3634 11.471 3 
22.966 14.3631 8.59986 3 
21.5305 12.9277 10.0358 3 
21.5303 15.7987 10.0352 3 
22.966 14.3635 11.4713 3 
24.4017 15.7987 10.0352 3 
24.4015 12.9277 10.0358 3 
28.7087 14.3628 8.59895 3 
25.8372 14.363 8.59959 3 
28.7089 14.3632 11.4706 3 
27.2728 12.9279 10.0352 3 
27.2734 15.7982 10.0346 3 
25.8373 14.3634 11.471 3 
2.86999 17.2316 8.59747 3 
2.87378 20.0994 8.59514 3 
0.00262051 20.0985 8.59296 3 
1.43604 18.6658 10.0326 3 
2.8699 17.2321 11.47 3 
2.8733 20.1003 11.4693 3 
0.00245031 20.1001 11.468 3 
5.74048 17.232 8.59781 3 
5.74167 20.1022 8.59707 3 
4.30659 18.6664 10.0335 3 
7.1756 18.6676 10.0339 3 
5.74048 17.2324 11.4701 3 
5.74147 20.1027 11.4698 3 
8.61009 17.2324 8.59798 3 
11.4796 17.232 8.59781 3 
8.61006 20.1032 8.59764 3 
11.4785 20.1023 8.59702 3 
10.0446 18.6677 10.0339 3 
8.61009 17.2328 11.4701 3 
11.4796 17.2325 11.4701 3 
8.61008 20.1036 11.47 3 
11.4787 20.1028 11.4699 3 
14.3501 17.2316 8.59738 3 
14.3463 20.0995 8.59507 3 
12.9135 18.6664 10.0334 3 
15.784 18.6659 10.0326 3 
14.3502 17.2322 11.47 3 
14.3468 20.1004 11.4693 3 
17.2219 17.2322 8.59739 3 
20.0944 17.2332 8.59843 3 
17.2174 20.0986 8.59285 3 
20.0938 20.1019 8.59581 3 
18.6565 18.6673 10.0323 3 
17.2218 17.233 11.4698 3 
20.0938 17.2342 11.47 3 
17.2175 20.1001 11.4679 3 
20.091 20.1033 11.4671 3 
22.966 17.2334 8.59888 3 
22.966 20.1025 8.59677 3 
21.5299 18.669 10.0339 3 
22.966 17.2347 11.4704 3 
22.966 20.1056 11.4693 3 
24.4021 18.669 10.0339 3 
28.7101 17.2321 8.59744 3 
25.8376 17.2331 8.59843 3 
25.8383 20.1018 8.59588 3 
28.7102 17.2329 11.4699 3 
27.2755 18.6672 10.0324 3 
25.8382 17.2341 11.47 3 
25.841 20.1032 11.4671 3 
2.87619 22.9701 8.59263 3 
1.44527 24.4028 10.0253 3 
1.44266 21.5313 10.0293 3 
2.87498 22.9709 11.468 3 
0.0165078 22.9578 8.58043 3 
0.0145903 22.9607 11.464 3 
5.7419 22.9741 8.59659 3 
4.30817 21.5367 10.0324 3 
7.17563 24.4111 10.0335 3 
4.30782 24.4093 10.0318 3 
7.17581 21.5389 10.0336 3 
5.74146 22.9745 11.4694 3 
8.61006 22.9751 8.59749 3 
11.4782 22.9741 8.59656 3 
10.0446 24.4111 10.0335 3 
10.0443 21.539 10.0336 3 
8.61009 22.9753 11.4698 3 
11.4788 22.9745 11.4694 3 
14.3438 22.9701 8.59253 3 
15.7747 24.4028 10.0252 3 
12.9123 24.4093 10.0318 3 
14.3451 22.971 11.468 3 
15.7774 21.5314 10.0291 3 
12.912 21.5368 10.0324 3 
17.2035 22.9579 8.58028 3 
20.0942 22.9683 8.5908 3 
18.6491 21.5309 10.0247 3 
18.6153 24.3716 9.99408 3 
17.2054 22.9607 11.4639 3 
20.0781 22.9633 11.4549 3 
22.966 22.9695 8.59204 3 
24.4017 21.5381 10.0318 3 
21.5406 24.4068 10.0293 3 
22.966 22.9789 11.4702 3 
24.3913 24.4068 10.0294 3 
21.5303 21.5382 10.0317 3 
25.8378 22.9682 8.59089 3 
27.2829 21.5308 10.0248 3 
25.8538 22.9633 11.455 3 
27.3166 24.3716 9.99416 3 
2.87488 25.8456 8.59348 3 
0.0145603 25.8415 8.58323 3 
1.44182 27.2821 10.0279 3 
0.0137911 25.8347 11.4572 3 
2.87318 25.8447 11.4671 3 
5.74141 25.847 8.59699 3 
4.30675 27.283 10.0325 3 
5.74074 25.847 11.4693 3 
7.1754 27.2834 10.0339 3 
8.61007 25.8474 8.5978 3 
11.4787 25.847 8.5969 3 
10.0448 27.2834 10.0338 3 
8.61015 25.8474 11.4698 3 
11.4795 25.8469 11.4694 3 
14.3451 25.8456 8.59332 3 
15.7782 27.2821 10.0278 3 
14.3469 25.8447 11.4671 3 
12.9133 27.283 10.0325 3 
17.2054 25.8414 8.58308 3 
20.0781 25.8324 8.58571 3 
17.2062 25.8347 11.4572 3 
19.9909 25.7501 11.3725 3 
18.6271 27.2823 10.0081 3 
22.9659 28.7101 8.59812 3 
22.9659 25.8476 8.60142 3 
24.4326 27.2611 10.0246 3 
22.9659 25.8992 11.5217 5 
21.4993 27.2612 10.0246 3 
25.8538 25.8324 8.58584 3 
25.941 25.7501 11.3726 3 
27.3048 27.2822 10.0082 3 
1.43777 1.44358 12.9062 3 
2.87189 2.8814 14.3423 3 
2.87071 0.00765425 14.342 3 
1.43848 1.44646 15.7808 3 
0.00152772 0.00760339 14.342 3 
0.00812105 2.88773 14.3397 3 
4.30569 1.44364 12.9061 3 
7.17516 1.4435 12.9063 3 
4.30548 1.44439 15.7787 3 
7.17509 1.44382 15.7782 3 
5.74037 2.87991 14.3424 3 
5.74009 0.00766786 14.342 3 
10.045 1.44355 12.9063 3 
8.61007 2.87959 14.3424 3 
11.4797 2.87996 14.3425 3 
10.0451 1.44388 15.7783 3 
11.4801 0.0077156 14.3422 3 
8.61015 0.00770088 14.3421 3 
12.9144 1.44367 12.9062 3 
15.7822 1.44358 12.9062 3 
12.9146 1.44442 15.7789 3 
15.7815 1.44647 15.781 3 
14.3481 2.88139 14.3424 3 
14.3494 0.00767182 14.3421 3 
18.6499 1.43796 12.9117 3 
17.2117 2.88778 14.3398 3 
20.1318 0.00757723 14.342 5 
18.6234 1.45356 15.7881 3 
17.2184 0.00762519 14.3421 3 
20.0493 2.92938 14.3099 3 
21.5435 1.40639 12.9432 5 
24.3882 1.40633 12.9433 5 
22.9659 0.756566 15.0911 5 
21.1282 1.59368 15.9282 5 
22.9658 2.98191 14.3467 5 
27.2819 1.4379 12.9117 3 
25.8825 2.92933 14.3099 3 
24.8035 1.5937 15.9282 5 
27.3084 1.45355 15.788 3 
25.8 0.00753951 14.342 5 
1.44021 4.31974 12.9035 3 
1.43905 7.1921 12.9035 3 
2.87353 5.75487 14.3415 3 
1.44167 4.3219 15.7796 3 
1.44079 7.19387 15.7782 3 
0.0101408 5.76242 14.3384 3 
4.30667 4.31725 15.7788 3 
4.30735 7.18967 15.7783 3 
4.30647 4.31653 12.9059 3 
7.17534 4.3155 12.9064 3 
4.30677 7.18888 12.9054 3 
7.1755 7.18743 12.9061 3 
7.17534 4.31588 15.7785 3 
7.1756 7.18786 15.7783 3 
5.74103 5.75222 14.3422 3 
10.0448 4.31553 12.9064 3 
10.0447 7.18742 12.9062 3 
11.4791 5.7522 14.3423 3 
8.61004 5.75154 14.3424 3 
10.0448 4.31587 15.7785 3 
10.0445 7.18784 15.7783 3 
12.9136 4.31652 12.9059 3 
15.7797 4.31977 12.9035 3 
12.9133 7.18883 12.9055 3 
15.7809 7.19212 12.9035 3 
14.3465 5.75488 14.3416 3 
15.7783 4.32194 15.7798 3 
12.9134 4.31726 15.7789 3 
12.9127 7.18966 15.7784 3 
15.7792 7.19392 15.7783 3 
18.6384 4.33237 12.8917 3 
18.6538 7.19092 12.9041 3 
17.2097 5.76247 14.3385 3 
20.0851 5.75855 14.3425 3 
18.6272 4.34154 15.7795 3 
18.6508 7.19285 15.7804 3 
24.411 4.32617 12.8968 3 
21.5207 4.32619 12.8968 3 
21.5295 7.18594 12.9083 3 
24.4023 7.1859 12.9083 3 
21.4993 4.32508 15.8005 3 
21.5256 7.18642 15.783 3 
24.4063 7.1864 15.783 3 
22.9659 5.75164 14.3516 3 
24.4325 4.32504 15.8004 3 
27.2934 4.33234 12.8917 3 
27.278 7.19087 12.9042 3 
25.8467 5.75847 14.3425 3 
27.3047 4.34149 15.7793 3 
27.2811 7.19277 15.7803 3 
1.43454 10.0596 12.9055 3 
2.87227 8.6259 14.3414 3 
2.86947 11.4944 14.3419 3 
1.43531 10.0604 15.7782 3 
0.00089662 8.62564 14.3416 3 
4.30569 10.0595 12.9056 3 
7.17531 10.0586 12.906 3 
5.74106 8.62392 14.3419 3 
4.30611 10.0601 15.778 3 
7.17542 10.0591 15.7781 3 
5.74024 11.4942 14.342 3 
10.0448 10.0586 12.906 3 
8.61005 11.4939 14.342 3 
11.4798 11.4943 14.342 3 
10.0446 10.0591 15.7781 3 
11.4791 8.6239 14.342 3 
8.61006 8.6232 14.3421 3 
12.9144 10.0595 12.9056 3 
15.7855 10.0596 12.9055 3 
14.3478 8.6259 14.3414 3 
14.3506 11.4945 14.3419 3 
12.9139 10.0602 15.7781 3 
15.7847 10.0605 15.7783 3 
18.658 10.058 12.9064 3 
17.219 8.62571 14.3417 3 
18.6569 10.0587 15.7789 3 
20.0942 11.4925 14.3428 3 
17.2224 11.4938 14.3422 3 
20.0924 8.62234 14.3435 3 
21.5302 10.0562 12.908 3 
24.4016 10.0561 12.908 3 
21.5293 10.0567 15.7794 3 
24.4026 10.0567 15.7793 3 
22.9659 11.4918 14.3433 3 
22.9659 8.61974 14.3455 3 
27.274 10.058 12.9065 3 
28.7097 11.4937 14.3422 3 
25.8394 8.62231 14.3434 3 
27.275 10.0586 15.7789 3 
25.8377 11.4925 14.3428 3 
1.43283 12.9286 12.9062 3 
1.43311 15.7982 12.9063 3 
1.43306 12.9291 15.7781 3 
1.43288 15.7987 15.7782 3 
2.86853 14.3636 14.3422 3 
4.30435 12.9287 12.906 3 
4.30452 15.7979 12.9063 3 
7.17499 12.9286 12.906 3 
7.17508 15.7981 12.9062 3 
4.30434 15.7984 15.7783 3 
4.30445 12.9293 15.7781 3 
7.175 12.9291 15.7781 3 
7.17495 15.7986 15.7783 3 
5.73968 14.3636 14.3422 3 
10.0451 12.9286 12.906 3 
10.045 15.798 12.9062 3 
8.61001 14.3636 14.3422 3 
10.045 12.9291 15.7781 3 
10.045 15.7986 15.7783 3 
11.4804 14.3636 14.3422 3 
12.9157 12.9288 12.9061 3 
15.7872 12.9287 12.9062 3 
12.9155 15.798 12.9063 3 
15.7869 15.7983 12.9063 3 
14.3515 14.3637 14.3422 3 
12.9156 12.9293 15.7781 3 
15.787 12.9291 15.7781 3 
12.9156 15.7985 15.7783 3 
15.7871 15.7987 15.7782 3 
18.6589 12.9282 12.9066 3 
18.6586 15.7989 12.9063 3 
18.6586 12.9286 15.7781 3 
18.6588 15.7993 15.7778 3 
17.223 14.3637 14.3422 3 
20.0946 14.3638 14.3422 3 
21.5303 12.9278 12.9072 3 
21.5301 15.7994 12.9063 3 
24.4018 15.7994 12.9063 3 
24.4016 12.9278 12.9072 3 
22.966 14.3638 14.3422 3 
21.5302 12.9282 15.7781 3 
21.5304 15.7998 15.7773 3 
24.4017 15.7998 15.7772 3 
24.4018 12.9281 15.7781 3 
27.2731 12.9281 12.9066 3 
27.2734 15.7988 12.9063 3 
28.7089 14.3636 14.3422 3 
27.2734 12.9285 15.7781 3 
27.2732 15.7993 15.7777 3 
25.8374 14.3637 14.3422 3 
1.43548 18.6669 12.9061 3 
0.00108861 20.1017 14.3426 3 
1.43466 18.6677 15.7788 3 
2.86957 17.2328 14.3424 3 
2.87244 20.1014 14.3429 3 
4.30625 18.6671 12.9063 3 
7.1755 18.6681 12.9062 3 
5.74112 20.1034 14.3424 3 
4.30574 18.6678 15.7787 3 
7.17531 18.6686 15.7784 3 
5.74027 17.233 14.3424 3 
10.0446 18.6682 12.9062 3 
11.479 20.1034 14.3425 3 
8.61006 20.1041 14.3423 3 
10.0447 18.6686 15.7784 3 
8.61005 17.2333 14.3423 3 
11.4798 17.233 14.3424 3 
12.9139 18.6671 12.9063 3 
15.7846 18.6669 12.9061 3 
14.3505 17.2328 14.3425 3 
14.3476 20.1014 14.343 3 
12.9143 18.6678 15.7788 3 
15.7853 18.6678 15.7789 3 
20.0924 20.1051 14.3409 3 
18.6568 18.6688 12.9054 3 
17.2189 20.1017 14.3427 3 
20.0941 17.235 14.3416 3 
18.6579 18.6694 15.7779 3 
17.2222 17.2337 14.3422 3 
22.966 20.1076 14.3388 3 
21.5293 18.6707 12.905 3 
24.4026 18.6707 12.905 3 
22.966 17.2357 14.341 3 
21.5303 18.6713 15.7763 3 
24.4017 18.6713 15.7763 3 
28.7098 17.2336 14.3421 3 
27.2752 18.6687 12.9054 3 
25.8396 20.105 14.3408 3 
27.2742 18.6694 15.7779 3 
25.8378 17.235 14.3415 3 
1.441 21.5334 12.906 3 
1.44188 24.4053 12.9045 3 
0.0103669 22.9648 14.3458 3 
1.43924 21.5352 15.7807 3 
1.44039 24.4076 15.7806 3 
2.87368 22.9724 14.3427 3 
5.74113 22.9751 14.342 3 
4.3075 21.5376 12.906 3 
7.17545 24.4115 12.9058 3 
4.30681 24.4101 12.9054 3 
7.17568 21.5394 12.906 3 
4.30688 21.5385 15.7788 3 
7.1755 21.5399 15.7782 3 
4.30659 24.4109 15.7783 3 
7.17537 24.4119 15.7779 3 
10.0448 24.4114 12.9058 3 
10.0445 21.5394 12.906 3 
8.61005 22.9758 14.342 3 
10.0446 21.5399 15.7783 3 
10.0447 24.4118 15.7779 3 
11.479 22.9751 14.3421 3 
12.9134 24.4101 12.9054 3 
15.7782 24.4053 12.9045 3 
12.9127 21.5376 12.9061 3 
15.7791 21.5334 12.9061 3 
12.9132 21.5385 15.779 3 
15.7808 21.5352 15.7809 3 
12.9135 24.4108 15.7784 3 
15.7796 24.4076 15.7808 3 
14.3464 22.9725 14.3428 3 
18.6271 24.3857 12.9048 3 
18.6507 21.5345 12.9039 3 
18.6538 21.5364 15.7802 3 
18.6383 24.3949 15.7926 3 
17.2096 22.9649 14.3459 3 
20.0851 22.9688 14.3417 3 
24.4326 24.4021 12.8837 3 
24.4063 21.5409 12.9012 3 
21.4993 24.4021 12.8837 3 
21.5256 21.5409 12.9012 3 
21.5296 21.5414 15.776 3 
24.4025 21.5414 15.7759 3 
24.4111 24.4011 15.7874 3 
21.5208 24.401 15.7874 3 
22.966 22.9756 14.3327 3 
27.3049 24.3857 12.9047 3 
27.2812 21.5345 12.9039 3 
27.2782 21.5365 15.7801 3 
27.2937 24.3949 15.7924 3 
25.8469 22.9688 14.3417 3 
1.43853 27.2808 12.9032 3 
0.00828838 25.8395 14.3443 3 
2.87201 25.8459 14.3418 3 
1.43782 27.2837 15.7779 3 
5.74048 25.8474 14.3418 3 
4.30554 27.2829 12.9053 3 
7.17515 27.2835 12.9059 3 
4.30575 27.2837 15.7779 3 
7.17519 27.2839 15.7778 3 
10.0451 27.2835 12.9059 3 
8.61012 25.8478 14.3418 3 
10.045 27.2839 15.7779 3 
11.4797 25.8474 14.3418 3 
12.9146 27.283 12.9054 3 
15.7815 27.2809 12.9033 3 
14.3481 25.8459 14.3419 3 
12.9144 27.2837 15.7781 3 
15.7822 27.2837 15.7781 3 
18.6234 27.2737 12.8961 3 
17.2117 25.8395 14.3445 3 
18.6499 27.2893 15.7724 3 
20.0493 25.7978 14.3743 3 
22.9658 27.9705 13.5927 5 
21.1282 27.1334 12.756 5 
22.9659 25.7452 14.3374 5 
21.5436 27.3208 15.7408 5 
24.3883 27.3208 15.7408 5 
24.8035 27.1334 12.756 5 
27.3085 27.2736 12.8961 3 
25.8826 25.7978 14.3742 3 
27.282 27.2893 15.7723 3 
1.44178 1.44524 18.6563 3 
2.87308 2.88265 17.217 3 
0.00826338 0.00529358 17.2221 3 
2.87196 0.00793937 17.2157 3 
2.87483 2.88175 20.0907 3 
2.87361 0.00708868 20.0892 3 