ITEM: TIMESTEP
95041
ITEM: NUMBER OF ATOMS
2001
ITEM: BOX BOUNDS pp pp pp
0.0000000000000000e+00 2.8712000000000000e+01
0.0000000000000000e+00 2.8712000000000000e+01
0.0000000000000000e+00 2.8712000000000000e+01
ITEM: ATOMS x y z c_cna 
1.4337 1.44369 1.42081 3 
2.86966 2.88004 2.85554 3 
2.87028 0.00789116 2.85522 3 
4.30495 1.44383 1.42096 3 
7.17507 1.44374 1.42127 3 
5.74009 2.87986 2.85624 3 
5.74071 0.00784649 2.85601 3 
10.0445 1.44358 1.42118 3 
8.60953 2.87965 2.85659 3 
11.4789 2.87969 2.85577 3 
11.4795 0.00744938 2.85596 3 
8.61011 0.00765516 2.85654 3 
12.9146 1.44358 1.42073 3 
15.7858 1.44379 1.42059 3 
14.3492 2.88001 2.85478 3 
14.3498 0.00742505 2.85512 3 
18.6578 1.444 1.42086 3 
17.221 2.88039 2.8548 3 
20.0934 2.88044 2.85553 3 
20.0938 0.0079538 2.85585 3 
17.2215 0.00769809 2.85514 3 
22.9657 2.87995 2.85579 3 
21.5299 1.44385 1.42116 3 
24.4018 1.44345 1.4211 3 
22.966 0.00762901 2.85619 3 
28.71 2.87983 2.8553 3 
27.2738 1.4434 1.42092 3 
25.8378 2.87955 2.85551 3 
28.7106 0.00755616 2.85519 3 
25.8382 0.00728156 2.85582 3 
1.43336 4.31555 1.42088 3 
1.43317 7.18698 1.42108 3 
2.86909 5.75164 2.85599 3 
4.30443 4.31567 1.42111 3 
4.30405 7.18701 1.42133 3 
7.17451 4.31561 1.42135 3 
7.17411 7.1871 1.42146 3 
5.73952 5.75149 2.85656 3 
10.044 4.31561 1.42115 3 
10.0437 7.18745 1.42119 3 
8.60906 5.75147 2.85668 3 
11.4784 5.75193 2.85571 3 
12.9141 4.31589 1.42061 3 
15.7854 4.31625 1.42039 3 
12.9138 7.18807 1.42061 3 
15.7852 7.18855 1.42027 3 
14.3487 5.75274 2.85452 3 
18.6575 4.31634 1.42062 3 
18.6575 7.18845 1.42038 3 
17.2206 5.75329 2.8543 3 
20.0934 5.75293 2.85481 3 
21.5298 4.31598 1.42082 3 
21.5299 7.18803 1.42056 3 
22.966 5.75236 2.8551 3 
24.402 7.18761 1.42062 3 
24.4018 4.31559 1.42082 3 
28.7097 5.75154 2.85556 3 
27.2736 4.3154 1.42078 3 
27.2739 7.18723 1.42079 3 
25.8381 5.75188 2.85521 3 
1.43335 10.0579 1.42128 3 
2.86871 8.6225 2.85664 3 
2.86889 11.4929 2.85703 3 
4.30396 10.0577 1.42157 3 
7.17405 10.058 1.42163 3 
5.73912 8.62251 2.85702 3 
5.7392 11.4929 2.85735 3 
10.0438 10.0587 1.42135 3 
8.60881 8.62285 2.8569 3 
11.4783 8.62376 2.85593 3 
8.60911 11.4935 2.85721 3 
11.4789 11.4946 2.85655 3 
12.914 10.0595 1.42084 3 
15.7856 10.0599 1.42057 3 
14.3488 8.62485 2.85477 3 
14.3498 11.4953 2.85589 3 
18.6578 10.0597 1.42061 3 
17.221 8.62508 2.85453 3 
20.0937 8.62472 2.85481 3 
17.2217 11.4953 2.85566 3 
20.094 11.4949 2.85577 3 
21.5301 10.0593 1.4207 3 
22.9663 8.62414 2.85509 3 
22.9662 11.4945 2.85594 3 
24.4022 10.0588 1.4208 3 
28.7099 11.4933 2.85654 3 
28.7099 8.62299 2.85596 3 
27.2741 10.0583 1.42099 3 
25.8384 8.62356 2.85541 3 
25.8383 11.4939 2.85617 3 
1.43358 12.9279 1.42144 3 
1.43401 15.7974 1.42119 3 
2.86936 14.3626 2.85695 3 
4.30526 15.7975 1.42137 3 
4.30441 12.9278 1.42163 3 
7.17459 12.9282 1.42173 3 
7.17553 15.7981 1.42161 3 
5.73999 14.3628 2.85727 3 
10.0444 12.929 1.42157 3 
10.0453 15.799 1.42165 3 
8.60997 14.3636 2.8574 3 
11.48 14.3644 2.85716 3 
12.9148 12.9297 1.42129 3 
15.7861 12.9299 1.42112 3 
12.9155 15.7995 1.42152 3 
15.7864 15.7994 1.42131 3 
14.3506 14.3647 2.8568 3 
18.6579 12.9297 1.42106 3 
18.6579 15.7991 1.42119 3 
17.222 14.3646 2.85658 3 
20.0939 14.3642 2.8565 3 
21.53 12.9293 1.42114 3 
21.5299 15.7986 1.42117 3 
22.966 14.3637 2.85651 3 
24.402 15.7981 1.42115 3 
24.4022 12.9288 1.42117 3 
28.71 14.3628 2.85668 3 
27.2741 12.9283 1.42125 3 
27.2741 15.7976 1.42113 3 
25.8381 14.3632 2.85655 3 
1.43467 18.6674 1.42063 3 
2.87037 17.232 2.85597 3 
2.87142 20.1024 2.85486 3 
4.30613 18.6677 1.42092 3 
7.17626 18.6685 1.42139 3 
5.74113 17.2326 2.85663 3 
5.74177 20.1034 2.85603 3 
10.0458 18.6692 1.42156 3 
8.61084 17.2336 2.85725 3 
11.4807 17.2344 2.85725 3 
8.61116 20.1044 2.85692 3 
11.4808 20.1047 2.85694 3 
12.9159 18.6696 1.42144 3 
15.7865 18.6695 1.42114 3 
14.351 17.2344 2.85685 3 
14.3511 20.1048 2.85648 3 
18.6579 18.669 1.42095 3 
17.222 17.234 2.85642 3 
20.0937 17.2335 2.85613 3 
17.222 20.1044 2.85587 3 
20.0935 20.1038 2.85543 3 
21.5298 18.6686 1.42085 3 
24.402 18.6681 1.42075 3 
22.9658 17.2329 2.85594 3 
22.9657 20.1032 2.85511 3 
28.7112 20.1022 2.85456 3 
28.7105 17.232 2.85573 3 
27.2744 18.6676 1.42064 3 
25.8381 17.2324 2.85577 3 
25.8384 20.1026 2.8548 3 
1.43506 21.5387 1.42036 3 
2.8715 22.9746 2.85463 3 
1.43482 24.411 1.42047 3 
4.30637 21.5392 1.42069 3 
7.17637 21.5398 1.42125 3 
5.74172 22.9753 2.85583 3 
7.17608 24.4117 1.42122 3 
4.30608 24.4114 1.42072 3 
10.0458 21.5402 1.42144 3 
8.611 22.9758 2.85671 3 
11.4805 22.9758 2.85651 3 
10.0455 24.4117 1.42132 3 
12.9158 21.5403 1.42119 3 
15.7867 21.5404 1.42097 3 
14.3508 22.9756 2.85587 3 
15.7866 24.4117 1.42075 3 
12.9155 24.4116 1.42099 3 
18.6581 21.5401 1.42078 3 
17.2222 22.9758 2.85552 3 
20.0938 22.9755 2.85528 3 
18.6583 24.4119 1.4208 3 
21.5299 21.5398 1.42073 3 
24.4022 21.5393 1.42062 3 
22.966 22.9749 2.85519 3 
21.5302 24.4117 1.42093 3 
24.4023 24.4113 1.42091 3 
28.7117 22.974 2.85436 3 
27.2747 21.5388 1.42044 3 
25.8387 22.9743 2.85482 3 
27.2747 24.4109 1.42069 3 
1.43425 27.2835 1.42067 3 
2.87097 25.8473 2.85488 3 
4.30551 27.2837 1.42084 3 
7.17562 27.2837 1.42124 3 
5.74128 25.8476 2.85585 3 
10.0451 27.2835 1.42125 3 
8.61063 25.8476 2.85661 3 
11.48 25.8474 2.8562 3 
12.9151 27.2834 1.42085 3 
15.7862 27.2836 1.42067 3 
14.3503 25.8473 2.85543 3 
18.6582 27.2839 1.42087 3 
17.2219 25.8475 2.85525 3 
20.0941 25.8478 2.85556 3 
21.5302 27.2838 1.42114 3 
22.9663 25.8473 2.85584 3 
24.4022 27.2834 1.42122 3 
28.7112 25.8469 2.85486 3 
27.2742 27.2833 1.42092 3 
25.8387 25.8468 2.85555 3 
1.43513 1.44441 4.28941 3 
1.43839 1.44632 7.15699 3 
2.87115 2.88108 5.72482 3 
2.87226 0.00844975 5.72385 3 
0.00115995 0.00825904 5.72255 3 
4.30593 1.44436 7.16151 3 
4.30587 1.44423 4.29052 3 
7.17522 1.44379 4.29186 3 
7.17502 1.44368 7.16329 3 
5.74026 2.87996 5.72709 3 
5.74091 0.00793215 5.72669 3 
10.0444 1.44362 4.29171 3 
10.0447 1.44366 7.16308 3 
8.60956 2.87962 5.7277 3 
11.4786 2.87988 5.72632 3 
11.4793 0.00743888 5.72666 3 
8.61012 0.00771694 5.72763 3 
12.9136 1.44358 4.29003 3 
15.7841 1.44383 4.28876 3 
12.9134 1.44384 7.16076 3 
15.7799 1.44382 7.15522 3 
14.3468 2.88062 5.72294 3 
14.3478 0.00692917 5.72383 3 
18.6565 1.44437 4.28946 3 
18.6518 1.44526 7.15432 3 
17.2175 2.88179 5.72124 3 
20.0911 2.88269 5.72302 3 
20.0923 0.00787678 5.72423 3 
17.2189 0.00703663 5.72255 3 
21.5293 1.44438 4.29073 3 
24.402 1.4436 4.29048 3 
21.5273 1.44649 7.15763 3 
22.9658 2.88144 5.72417 3 
24.4019 1.44356 7.15833 3 
22.966 0.00761782 5.72551 3 
27.2748 1.44389 4.28965 3 
28.7119 2.88142 5.72341 3 
27.278 1.44623 7.15578 3 
25.8384 2.88015 5.72391 3 
25.8397 0.00732801 5.72419 3 
1.43431 4.31645 4.29006 3 
1.43353 7.18735 4.2912 3 
1.43619 4.31829 7.15929 3 
1.43347 7.18724 7.16247 3 
2.86988 5.75238 5.7262 3 
4.3051 4.31613 4.29111 3 
4.30436 7.18724 4.29196 3 
7.17463 4.31563 4.2921 3 
7.17418 7.18705 4.29248 3 
4.30413 7.18691 7.16362 3 
7.17454 4.31536 7.16361 3 
4.3051 4.31617 7.16244 3 
5.73961 5.75145 5.72771 3 
7.17412 7.18664 7.16403 3 
10.0439 4.31569 4.29166 3 
10.0435 7.18761 4.29179 3 
10.0441 4.31567 7.16301 3 
8.60911 5.75136 5.72784 3 
10.0436 7.18747 7.16328 3 
11.478 5.7524 5.72621 3 
12.9129 4.3164 4.28964 3 
15.7833 4.31744 4.28804 3 
12.9125 7.18907 4.28969 3 
15.7831 7.19071 4.28791 3 
12.9124 4.31725 7.16017 3 
15.7779 4.32063 7.15351 3 
12.9119 7.19018 7.16056 3 
14.346 5.75472 5.72241 3 
15.7779 7.19587 7.15422 3 
18.6558 4.31805 4.28842 3 
18.6564 7.19064 4.28808 3 
18.6493 4.32456 7.15087 3 
17.2166 5.75724 5.72 3 
18.6532 7.19598 7.15356 3 
20.092 5.75644 5.72127 3 
21.5294 4.31736 4.28945 3 
21.5299 7.18984 4.28878 3 
24.4027 7.18903 4.28933 3 
24.4023 4.3166 4.28962 3 
21.5285 4.32202 7.15433 3 
21.53 7.19407 7.15526 3 
22.9667 5.75502 5.72256 3 
24.4047 7.19229 7.15702 3 
24.4047 4.31982 7.15582 3 
28.7103 5.75218 5.72521 3 
27.2742 4.31601 4.28976 3 
27.2747 7.18821 4.29 3 
27.2748 4.31661 7.15871 3 
25.8397 5.75377 5.7234 3 
27.2766 7.19006 7.15931 3 
1.43355 10.0582 4.29197 3 
1.43323 10.0579 7.16365 3 
2.8687 8.62246 5.7278 3 
2.86866 11.4928 5.72848 3 
4.30392 10.0576 4.29277 3 
7.17403 10.0579 4.29292 3 
4.3036 10.0573 7.1644 3 
5.73907 8.6223 5.72844 3 
7.17398 10.0575 7.16451 3 
5.73907 11.4927 5.72888 3 
10.0436 10.0588 4.29226 3 
8.60885 8.62272 5.72826 3 
10.0439 10.0585 7.16398 3 
11.478 8.62425 5.72674 3 
8.60916 11.4933 5.72874 3 
11.479 11.4945 5.72797 3 
12.9132 10.0604 4.29066 3 
15.7846 10.0612 4.28967 3 
12.9134 10.0602 7.16266 3 
14.3466 8.62713 5.72357 3 
15.7835 10.0619 7.16057 3 
14.3493 11.4957 5.72671 3 
18.6573 10.061 4.28969 3 
20.0932 8.62714 5.723 3 
17.2191 8.6279 5.72248 3 
18.6564 10.0615 7.16025 3 
17.2212 11.4957 5.72622 3 
20.0938 11.4953 5.72637 3 
24.4026 10.0597 4.29049 3 
21.5301 10.0604 4.29005 3 
21.5299 10.0606 7.16081 3 
22.9668 8.6261 5.72384 3 
22.9663 11.4947 5.72672 3 
24.4027 10.0598 7.16157 3 
28.7098 11.4934 5.72776 3 
27.2744 10.059 4.2911 3 
28.7106 8.62376 5.7262 3 
25.8394 8.62505 5.72479 3 
27.2745 10.059 7.16251 3 
25.8383 11.4941 5.72715 3 
1.43349 12.928 4.29252 3 
1.43412 15.7972 4.29185 3 
1.43307 12.9279 7.16416 3 
1.43395 15.7973 7.16338 3 
2.86918 14.3626 5.72833 3 
4.3043 12.9278 4.29297 3 
4.30533 15.7973 4.29235 3 
7.17454 12.9281 4.29317 3 
7.17554 15.7981 4.29299 3 
4.30499 15.7975 7.16405 3 
4.30395 12.9277 7.16456 3 
7.17444 12.928 7.16468 3 
5.73983 14.3628 5.72878 3 
7.17538 15.7983 7.16452 3 
10.0445 12.929 4.29289 3 
10.0454 15.799 4.29314 3 
10.0446 12.9289 7.16447 3 
8.61001 14.3636 5.72893 3 
10.0456 15.7991 7.16466 3 
11.4802 14.3644 5.72868 3 
12.9147 12.9299 4.29221 3 
15.7859 12.9301 4.29173 3 
12.9156 15.7995 4.2928 3 
15.7864 15.7994 4.29236 3 
12.915 12.9297 7.16394 3 
15.786 12.93 7.16326 3 
12.916 15.7996 7.16443 3 
14.3508 14.3647 5.72815 3 
15.7868 15.7995 7.16401 3 
18.6578 12.9299 4.29162 3 
18.6579 15.799 4.29203 3 
18.6579 12.9297 7.16305 3 
17.2221 14.3646 5.72783 3 
18.6582 15.7991 7.16365 3 
20.0939 14.3642 5.72767 3 
21.53 12.9294 4.29174 3 
21.5298 15.7985 4.29182 3 
24.4022 12.9289 4.29188 3 
24.4019 15.798 4.29171 3 
21.53 12.9292 7.16313 3 
21.5299 15.7987 7.16331 3 
22.966 14.3637 5.72766 3 
24.402 12.9288 7.16337 3 
24.4019 15.7983 7.16314 3 
27.274 12.9284 4.2921 3 
27.2742 15.7975 4.29167 3 
28.7098 14.3628 5.72792 3 
27.2737 12.9283 7.16371 3 
25.838 14.3633 5.72772 3 
27.2741 15.7978 7.16309 3 
1.43559 18.6661 4.28978 3 
1.43662 18.6655 7.16066 3 
2.87077 17.2316 5.72684 3 
2.87358 20.1002 5.72367 3 
0.00110466 20.0994 5.72249 3 
4.30693 18.6668 4.29078 3 
7.1764 18.6684 4.29235 3 
4.30671 18.667 7.16277 3 
5.74105 17.2327 5.72806 3 
7.17618 18.6688 7.16405 3 
5.74214 20.103 5.72686 3 
10.0459 18.6693 4.29291 3 
8.61085 17.2338 5.7288 3 
10.046 18.6697 7.16452 3 
11.4809 17.2345 5.7288 3 
8.61117 20.1045 5.7283 3 
11.4809 20.1049 5.72842 3 
12.9159 18.6696 4.29264 3 
15.7863 18.6691 4.29183 3 
12.9164 18.67 7.16433 3 
14.3512 17.2345 5.72833 3 
15.7866 18.6694 7.16353 3 
14.3512 20.1048 5.7277 3 
18.6574 18.6684 4.29102 3 
17.222 17.2339 5.72765 3 
18.6573 18.6684 7.16243 3 
20.0935 17.2333 5.72708 3 
17.2212 20.1036 5.72612 3 
20.0925 20.1023 5.72473 3 
21.5293 18.6677 4.29045 3 
24.4019 18.667 4.28999 3 
21.5292 18.6676 7.16151 3 
22.9657 17.2328 5.72667 3 
22.9651 20.1013 5.72376 3 
24.4021 18.6668 7.16071 3 
28.7108 17.2316 5.7263 3 
27.2748 18.6664 4.28969 3 
25.8382 17.2322 5.72633 3 
27.2756 18.6659 7.16024 3 
25.8389 20.1002 5.72293 3 
1.43714 21.5366 4.28795 3 
1.43695 24.4099 4.28811 3 
1.44221 21.5315 7.15427 3 
2.87424 22.9726 5.72251 3 
1.44226 24.4067 7.15352 3 
0.00355256 22.9701 5.71998 3 
4.30763 21.5382 4.2898 3 
4.30732 24.4109 4.28976 3 
7.17658 21.5397 4.29188 3 
7.17629 24.4116 4.29171 3 
4.30782 24.4101 7.16024 3 
4.30828 21.5372 7.16062 3 
7.17646 21.5398 7.16336 3 
5.74214 22.9749 5.72632 3 
7.1761 24.4117 7.16306 3 
10.0458 21.5402 4.2925 3 
10.0455 24.4117 4.29213 3 
10.0459 21.5406 7.16409 3 
8.611 22.9759 5.7279 3 
11.4804 22.9758 5.7277 3 
10.0456 24.412 7.16366 3 
12.9155 21.54 4.29186 3 
15.7863 21.54 4.29111 3 
12.9149 24.4112 4.29106 3 
15.7856 24.4109 4.28999 3 
12.9158 21.5404 7.16356 3 
15.7864 21.5401 7.16241 3 
14.35 22.9749 5.72613 3 
15.7837 24.409 7.15925 3 
12.9149 24.4112 7.16246 3 
18.6571 21.5391 4.28999 3 
18.6577 24.4113 4.28979 3 
18.6553 21.5373 7.15929 3 
17.2215 22.9752 5.72517 3 
20.0922 22.9736 5.7234 3 
18.6571 24.4107 7.15871 3 
24.4021 21.5375 4.28875 3 
21.5292 21.5383 4.28932 3 
24.4026 24.4099 4.28947 3 
21.5297 24.4107 4.28968 3 
21.5272 21.535 7.15696 3 
22.9653 22.9723 5.72254 3 
24.402 21.5333 7.15519 3 
21.5273 24.4074 7.15583 3 
24.4035 24.4052 7.15429 3 
27.2758 21.5367 4.28805 3 
27.2763 24.4092 4.28843 3 
27.2789 21.5313 7.15351 3 
25.8401 22.9708 5.72122 3 
27.2828 24.4027 7.15085 3 
1.43605 27.2835 4.28883 3 
1.44025 27.2835 7.15519 3 
2.87339 25.8468 5.723 3 
0.00268066 25.8455 5.72124 3 
4.30663 27.2838 4.29009 3 
7.1758 27.2837 4.29176 3 
4.30682 27.2836 7.16077 3 
5.74159 25.8475 5.7264 3 
7.17556 27.2838 7.16312 3 
10.045 27.2835 4.29187 3 
8.61061 25.8478 5.72772 3 
10.0452 27.2837 7.16331 3 
11.4799 25.8474 5.72711 3 
12.9142 27.2831 4.29046 3 
15.7848 27.2829 4.28935 3 
12.9141 27.283 7.16152 3 
14.3488 25.8463 5.72477 3 
15.7816 27.281 7.15701 3 
18.6572 27.2834 4.28967 3 
17.22 25.8459 5.7234 3 
18.6539 27.281 7.15584 3 
20.0935 25.8472 5.72394 3 
21.5301 27.2836 4.29052 3 
24.4027 27.2828 4.29072 3 
21.5301 27.2837 7.15837 3 
22.9662 25.8458 5.72423 3 
24.4048 27.2807 7.1576 3 
27.2756 27.2829 4.28946 3 
25.8409 25.8445 5.72298 3 
27.2802 27.282 7.15427 3 
2.87084 2.88105 8.59662 3 
0.00878141 0.0112815 8.58576 3 
1.43719 1.44563 10.0299 3 
2.86837 2.87895 11.4703 3 
0.00148156 2.8834 11.4662 3 
0.0044942 2.88595 8.58994 3 
0.00482673 0.00718749 11.4611 3 
2.87203 0.00816538 8.59507 3 
2.86862 0.00634482 11.4685 3 
5.7396 2.8795 8.59895 3 
4.30428 1.44344 10.034 3 
7.17447 1.44326 10.035 3 
5.73859 2.87844 11.4709 3 
5.73872 0.00704403 11.4703 3 
5.74008 0.00768467 8.59842 3 
8.60964 2.87936 8.59928 3 
11.4794 2.88006 8.598 3 
11.4801 0.00778678 8.59843 3 
10.0453 1.44367 10.0347 3 
8.60969 2.87885 11.4708 3 
11.4806 2.87991 11.47 3 
11.4814 0.0083953 11.4704 3 
8.61008 0.00772594 8.59921 3 
8.61005 0.00771925 11.4707 3 
14.3466 2.88196 8.59372 3 
14.3515 0.00902977 11.4686 3 
12.9152 1.44448 10.033 3 
15.781 1.44591 10.0269 3 
14.3498 2.88279 11.4672 3 
14.3481 0.00720358 8.59511 3 
17.2072 2.88585 8.58156 3 
20.0812 2.89261 8.58234 3 
18.6322 1.44502 10.0033 3 
17.2099 2.89485 11.4543 3 
19.9966 2.97718 11.367 3 
17.2113 0.00396761 8.58581 3 
20.0859 0.00531261 8.58787 3 
17.2153 0.00805506 11.4612 3 
22.9684 2.88782 8.58783 3 
21.5201 1.4536 9.99956 3 
22.9983 2.92939 11.4254 3 
24.3963 1.43793 10.026 3 
22.966 0.00758306 8.59455 3 
22.966 0.00756344 11.508 5 
25.8379 2.87952 8.59189 3 
27.2907 1.45799 10.0144 3 
25.8298 2.87142 11.4688 3 
25.8461 0.00988533 8.58781 3 
25.8878 0.0397171 11.4254 3 
2.86927 5.75178 8.59843 3 
1.43475 4.31707 10.0328 3 
1.43216 7.18584 10.035 3 
2.8679 5.75036 11.4709 3 
5.73919 5.75082 8.59959 3 
4.30344 7.18604 10.0355 3 
4.30395 4.31504 10.0349 3 
7.17421 4.31467 10.0353 3 
7.17404 7.18602 10.0356 3 
5.73867 5.75 11.4712 3 
8.60924 5.75091 8.59949 3 
11.4786 5.75241 8.59805 3 
10.0447 4.31528 10.0347 3 
10.0442 7.18679 10.0352 3 
8.60936 5.75022 11.471 3 
11.4796 5.75136 11.4705 3 
14.3451 5.75694 8.59353 3 
12.9138 4.31752 10.0327 3 
15.7774 4.32506 10.0253 3 
12.9133 7.18888 10.0342 3 
15.781 7.19276 10.0324 3 
14.3484 5.75395 11.4699 3 
17.2044 5.76946 8.57963 3 
20.088 5.76668 8.58159 3 
18.6182 4.35565 9.9915 3 
18.6488 7.19646 10.0253 3 
17.2149 5.75895 11.4703 3 
20.079 5.76398 11.4543 3 
22.9698 5.76259 8.58584 3 
21.5288 4.34162 10.0033 3 
21.5279 7.19292 10.0269 3 
22.9657 5.75857 11.4612 3 
24.404 7.191 10.03 3 
24.4165 4.33241 10.0145 3 
28.7099 5.75163 8.59693 3 
28.7073 5.74901 11.4705 3 
25.8443 5.75833 8.58999 3 
27.2727 4.31444 10.0318 3 
27.2754 7.18853 10.0329 3 
25.8418 5.75524 11.4663 3 
2.86805 8.62173 8.59974 3 
2.86813 11.4925 8.60014 3 
1.43238 10.0571 10.0356 3 
2.86727 8.62091 11.4713 3 
2.86765 11.4922 11.4714 3 
5.7388 8.62174 8.60011 3 
5.73882 11.4924 8.60035 3 
4.30314 10.0568 10.0359 3 
7.17395 10.0571 10.0359 3 
5.73853 8.62122 11.4713 3 
5.73865 11.4922 11.4714 3 
8.60901 8.6222 8.59989 3 
11.4786 8.62364 8.59905 3 
8.60927 11.4931 8.60022 3 
11.4794 11.4942 8.59975 3 
11.4791 8.62302 11.4709 3 
10.0442 10.058 10.0356 3 
8.60913 8.62169 11.4712 3 
8.60935 11.4929 11.4714 3 
11.4797 11.4939 11.4712 3 
14.3474 8.6263 8.59726 3 
14.3499 11.4951 8.59905 3 
12.914 10.0596 10.035 3 
15.7847 10.0604 10.0343 3 
14.3485 8.62519 11.4704 3 
14.3506 11.4946 11.4709 3 
17.2168 8.62876 8.59359 3 
20.0918 8.62731 8.59377 3 
17.2211 11.4952 8.5981 3 
20.0936 11.4945 8.59807 3 
18.6562 10.0601 10.0327 3 
17.2198 8.62538 11.4699 3 
20.091 8.62412 11.4672 3 
17.2222 11.4942 11.4706 3 
20.0938 11.4932 11.4701 3 
22.9665 8.62583 8.59515 3 
22.966 11.4938 8.59849 3 
21.5292 10.0587 10.0331 3 
22.9647 8.6224 11.4686 3 
22.9653 11.4925 11.4704 3 
24.4017 10.058 10.0341 3 
28.7092 11.4929 8.59967 3 
28.7101 8.62305 8.59847 3 
25.8394 8.62468 8.59668 3 
25.8378 11.4934 8.59909 3 
28.7087 8.62158 11.471 3 
28.7084 11.4924 11.4712 3 
27.2734 10.0577 10.035 3 
25.8373 8.62211 11.4704 3 
25.8368 11.4923 11.471 3 
2.86864 14.3627 8.6 3 
1.43242 12.9277 10.0357 3 
1.43322 15.7978 10.0353 3 
2.86819 14.3628 11.4712 3 
5.73956 14.3629 8.60025 3 
4.30359 12.9276 10.0359 3 
4.30457 15.7978 10.0356 3 
7.17436 12.9279 10.0359 3 
7.17528 15.7985 10.0358 3 
5.73939 14.363 11.4714 3 
8.61004 14.3636 8.60033 3 
11.4805 14.3643 8.60019 3 
10.0449 12.9287 10.0358 3 
10.0458 15.7993 10.0359 3 
8.61009 14.3636 11.4714 3 
11.4808 14.3643 11.4713 3 
14.3513 14.3646 8.59988 3 
12.9155 12.9294 10.0356 3 
15.7867 12.9295 10.0352 3 
12.9165 15.7997 10.0358 3 
15.7875 15.7996 10.0357 3 
14.3519 14.3645 11.4713 3 
17.2226 14.3645 8.59953 3 
20.0942 14.3641 8.59931 3 
18.6583 12.9291 10.0348 3 
18.6589 15.7994 10.0354 3 
17.2233 14.3643 11.4711 3 
20.0947 14.364 11.4709 3 
22.9659 14.3637 8.59929 3 
21.53 12.9286 10.0348 3 
21.5303 15.7993 10.0351 3 
22.9659 14.3637 11.4708 3 
24.4019 15.7989 10.0348 3 
24.4016 12.9282 10.0351 3 
28.7093 14.3629 8.59962 3 
25.8377 14.3634 8.59937 3 
28.7086 14.363 11.4711 3 
27.273 12.9279 10.0354 3 
27.2736 15.7983 10.0349 3 
25.8372 14.3634 11.4709 3 
2.87015 17.2323 8.59915 3 
2.87274 20.101 8.59732 3 
0.0032611 20.0986 8.59361 3 
1.4353 18.667 10.0343 3 
2.86952 17.2327 11.4709 3 
2.87166 20.1021 11.4703 3 
0.000279447 20.102 11.4699 3 
5.74071 17.233 8.59981 3 
5.74152 20.1037 8.59911 3 
4.30609 18.6677 10.035 3 
7.17597 18.6692 10.0356 3 
5.74046 17.2334 11.4712 3 
5.74108 20.1043 11.4709 3 
8.61083 17.2341 8.60022 3 
11.4812 17.2348 8.60028 3 
8.61105 20.1051 8.59995 3 
11.4812 20.1055 8.60008 3 
10.0461 18.6701 10.0358 3 
8.61084 17.2344 11.4714 3 
11.4815 17.2351 11.4714 3 
8.611 20.1056 11.4712 3 
11.4815 20.1061 11.4713 3 
14.3518 17.2348 8.60007 3 
14.3519 20.1056 8.59968 3 
12.9169 18.6705 10.0358 3 
15.7875 18.6702 10.0356 3 
14.3523 17.2351 11.4714 3 
14.3527 20.1064 11.4713 3 
17.2227 17.2344 8.59962 3 
20.094 17.234 8.59903 3 
17.2217 20.1043 8.59843 3 
20.0925 20.1027 8.59665 3 
18.6584 18.6697 10.035 3 
17.2235 17.235 11.4713 3 
20.0951 17.2351 11.471 3 
17.2231 20.1057 11.471 3 
20.0945 20.1052 11.4704 3 
22.9659 17.2336 8.59846 3 
22.9654 20.1015 8.59507 3 
21.5301 18.6693 10.0341 3 
22.9665 17.2349 11.4704 3 
22.9672 20.105 11.4686 3 
24.4027 18.6687 10.033 3 
28.7108 17.2322 8.59815 3 
28.7098 17.2332 11.4706 3 
25.8383 17.233 8.59804 3 
25.8402 20.1 8.59372 3 
27.2758 18.6673 10.0327 3 
25.8382 17.2342 11.47 3 
25.841 20.1033 11.4672 3 
2.87511 22.9704 8.59356 3 
0.0157635 22.9578 8.57962 3 
1.44276 24.4023 10.0252 3 
1.43912 21.5346 10.0324 3 
2.87172 22.9734 11.4699 3 
0.00523752 22.9684 11.4703 3 
5.7416 22.975 8.59808 3 
4.30682 21.5385 10.0342 3 
7.1755 24.4121 10.0348 3 
7.17597 21.5406 10.0353 3 
5.74056 22.976 11.4705 3 
4.30639 24.4099 10.0327 3 
8.61087 22.9765 8.59956 3 
11.4808 22.9765 8.59961 3 
10.0459 24.4127 10.0354 3 
10.0461 21.5413 10.0356 3 
8.61073 22.9771 11.4711 3 
11.4814 22.9774 11.4712 3 
14.3507 22.9755 8.5984 3 
15.7852 24.4102 10.0328 3 
12.9161 24.4123 10.035 3 
14.3521 22.977 11.471 3 
15.7877 21.5415 10.035 3 
12.9166 21.5413 10.0355 3 
17.222 22.9757 8.5969 3 
20.0876 22.9689 8.58997 3 
18.6564 21.5387 10.0329 3 
18.6592 24.4128 10.0318 3 
17.2245 22.9782 11.4706 3 
20.0901 22.972 11.4663 3 
22.9622 22.9647 8.5858 3 
24.4041 21.5344 10.0269 3 
21.5155 24.3948 10.0145 3 
22.9663 22.9687 11.4612 3 
24.4033 24.3856 10.0032 3 
21.5279 21.5363 10.03 3 
25.8441 22.9606 8.58151 3 
27.2833 21.5309 10.0252 3 
25.8531 22.9633 11.4542 3 
27.3139 24.3716 9.99142 3 
2.87356 25.8454 8.59369 3 
0.0129282 25.8414 8.5815 3 
2.87041 25.8446 11.4671 3 
0.0102974 25.8324 11.4542 3 
1.43916 27.2814 10.0268 3 
5.74079 25.8474 8.59801 3 
7.17487 27.2838 10.0348 3 
5.73953 25.8475 11.47 3 
4.30499 27.2829 10.033 3 
8.61052 25.8481 8.59933 3 
11.4805 25.8479 8.59903 3 
11.4815 25.849 11.471 3 
8.61042 25.8486 11.4708 3 
10.0457 27.2842 10.035 3 
14.3491 25.8463 8.59664 3 
12.9158 27.284 10.0341 3 
14.3516 25.8484 11.4703 3 
15.7828 27.2817 10.03 3 
17.2154 25.8413 8.58998 3 
20.0941 25.8477 8.59194 3 
18.6413 27.2692 10.0145 3 
20.1022 25.8558 11.4689 3 
17.2185 25.8438 11.4663 3 
20.0443 28.6874 11.4255 3 
22.9636 25.8394 8.58784 3 
21.5357 27.2892 10.0261 3 
22.9338 25.7978 11.4254 3 
24.412 27.2735 9.99952 3 
25.8509 25.8346 8.58228 3 
27.2999 27.2822 10.0031 3 
25.9354 25.75 11.367 3 
1.4322 1.44144 12.9056 3 
2.86711 2.87764 14.342 3 
1.43218 1.4414 15.7785 3 
2.86597 0.00427729 14.342 3 
4.30237 1.4418 12.9064 3 
7.17396 1.44268 12.9065 3 
5.73813 2.87786 14.3421 3 
4.30232 1.44178 15.7778 3 
7.17391 1.44267 15.7777 3 
5.73798 0.00651079 14.3421 3 
10.0457 1.44359 12.9063 3 
8.60966 2.87851 14.3421 3 
11.4811 2.87939 14.3421 3 
8.60996 0.00769619 14.3421 3 
10.0456 1.44357 15.7779 3 
11.482 0.00888358 14.3421 3 
12.9172 1.44494 12.9055 3 
15.7874 1.44861 12.9017 3 
14.3521 2.88057 14.3421 3 
12.9171 1.4449 15.7787 3 
15.7874 1.4486 15.7824 3 
14.3541 0.0110844 14.3421 3 
18.6487 1.46603 12.8755 3 
20.1458 2.82797 14.3421 5 
18.6487 1.46606 15.8087 3 
17.2221 0.0171712 14.3421 3 
17.2255 2.87958 14.3421 3 
19.9917 0.0122558 14.3421 5 
21.3801 1.59369 12.5045 5 
24.3649 1.40633 12.9197 5 
22.9614 2.98197 14.3421 5 
22.2171 0.756596 14.342 5 
21.3801 1.5937 16.1797 5 
24.3648 1.4063 15.7644 5 
27.2845 1.45285 12.8968 3 
25.8202 2.86168 14.3421 3 
28.7098 2.87943 14.342 3 
27.2846 1.45283 15.7872 3 
25.9404 0.00289314 14.342 5 
1.43233 4.3147 12.9064 3 
1.43105 7.18467 12.9067 3 
2.86739 5.74974 14.3421 3 
1.43237 4.31469 15.7777 3 
1.43108 7.18463 15.7775 3 
4.30298 4.31396 12.9066 3 
7.17396 4.31399 12.9066 3 
4.30296 7.18542 12.9067 3 
7.17392 7.18553 12.9067 3 
5.73844 5.74962 14.3421 3 
4.30295 4.31389 15.7775 3 
4.30298 7.18538 15.7775 3 
7.1739 4.31397 15.7776 3 
7.17388 7.18554 15.7775 3 
10.045 4.31464 12.9064 3 
10.0444 7.18624 12.9066 3 
10.0449 4.31461 15.7778 3 
10.0443 7.18622 15.7777 3 
8.60935 5.74991 14.3421 3 
11.4798 5.75088 14.3421 3 
12.9155 4.31593 12.906 3 
15.7847 4.31807 12.9064 3 
12.914 7.18801 12.9064 3 
15.7826 7.19116 12.9062 3 
15.7847 4.31802 15.7778 3 
12.9154 4.31586 15.7781 3 
12.9139 7.18795 15.7779 3 
15.7825 7.19115 15.7781 3 
14.3491 5.75299 14.3421 3 
18.6534 4.32041 12.9167 3 
18.6558 7.18909 12.9065 3 
20.0943 5.7483 14.3421 3 
18.6534 4.32039 15.7675 3 
18.6557 7.18907 15.7778 3 
17.2161 5.75774 14.3421 3 
24.4114 4.32619 12.8969 3 
21.5078 4.32514 12.8755 3 
21.5252 7.18645 12.9018 3 
24.3998 7.18596 12.9057 3 
22.9566 5.75162 14.3421 3 
21.5077 4.32507 15.8088 3 
21.5252 7.18639 15.7825 3 
24.3998 7.18585 15.7786 3 
24.4114 4.32609 15.7873 3 
28.7061 5.74773 14.3421 3 
27.268 4.3096 12.9068 3 
27.2731 7.18606 12.9064 3 
25.8379 5.75145 14.3421 3 
27.268 4.30953 15.7773 3 
27.2731 7.18597 15.7778 3 
1.43183 10.0566 12.9067 3 
2.8675 11.492 14.3421 3 
2.86701 8.62058 14.3421 3 
1.43188 10.0566 15.7774 3 
4.30287 10.0564 12.9068 3 
7.17392 10.0569 12.9068 3 
5.73843 8.62104 14.3421 3 
5.73857 11.4922 14.3421 3 
4.30286 10.0565 15.7775 3 
7.17387 10.0569 15.7775 3 
10.0443 10.0578 12.9067 3 
11.4798 11.4938 14.3422 3 
8.60916 8.62151 14.3421 3 
10.0443 10.0578 15.7777 3 
8.60938 11.4928 14.3422 3 
11.4792 8.62275 14.3422 3 
12.9144 10.0592 12.9066 3 
15.7856 10.0597 12.9064 3 
14.3488 8.62481 14.3422 3 
14.3508 11.4944 14.3422 3 
12.9144 10.0592 15.7778 3 
15.7856 10.0596 15.778 3 
18.6578 10.0583 12.9061 3 
17.2207 8.62464 14.3421 3 
17.2227 11.4938 14.3422 3 
20.0932 8.62172 14.3422 3 
18.6578 10.0583 15.7783 3 
20.0943 11.4927 14.3422 3 
21.5288 10.0566 12.9056 3 
24.4001 10.0561 12.9065 3 
22.9649 11.4917 14.3422 3 
21.5288 10.0566 15.7789 3 
24.4002 10.0561 15.7778 3 
22.9627 8.61973 14.3422 3 
27.2723 10.0567 12.9067 3 
28.7082 8.62104 14.3421 3 
25.8361 8.62084 14.3421 3 
28.7081 11.4921 14.3421 3 
27.2724 10.0566 15.7776 3 
25.8363 11.4919 14.3422 3 
1.43201 12.9276 12.9068 3 
1.43275 15.7981 12.9066 3 
1.43203 12.9276 15.7775 3 
1.43274 15.7981 15.7776 3 
2.86805 14.3628 14.3421 3 
4.30337 12.9275 12.9068 3 
4.30433 15.798 12.9067 3 
7.17435 12.9279 12.9068 3 
7.17524 15.7986 12.9068 3 
4.30429 15.798 15.7776 3 
4.30335 12.9275 15.7775 3 
7.17434 12.9279 15.7776 3 
7.17519 15.7986 15.7776 3 
5.73932 14.363 14.3422 3 
10.045 12.9287 12.9068 3 
10.0459 15.7994 12.9068 3 
11.4809 14.3643 14.3422 3 
10.045 12.9287 15.7777 3 
10.0459 15.7994 15.7776 3 
8.61012 14.3637 14.3422 3 
12.9158 12.9293 12.9067 3 
15.7873 12.9293 12.9067 3 
12.9167 15.7998 12.9068 3 
15.788 15.7997 12.9068 3 
14.352 14.3645 14.3423 3 
12.9159 12.9293 15.7777 3 
15.7873 12.9292 15.7778 3 
12.9167 15.7998 15.7777 3 
15.788 15.7997 15.7777 3 
18.6589 12.9287 12.9065 3 
18.6595 15.7997 12.9067 3 
18.659 12.9286 15.778 3 
18.6595 15.7996 15.7777 3 
17.2236 14.3642 14.3423 3 
20.095 14.364 14.3422 3 
21.53 12.928 12.9064 3 
21.5308 15.7997 12.9066 3 
24.4018 15.7994 12.9063 3 
24.401 12.9277 12.9066 3 
21.5301 12.928 15.778 3 
21.5309 15.7997 15.7778 3 
24.4019 15.7993 15.7779 3 
24.401 12.9277 15.7778 3 
22.9659 14.3637 14.3422 3 
25.8369 14.3634 14.3421 3 
27.2724 12.9277 12.9067 3 
27.273 15.7987 12.9064 3 
28.7084 14.3631 14.3421 3 
27.2724 12.9277 15.7776 3 
27.273 15.7987 15.7777 3 
2.86928 17.2329 14.3421 3 
1.43447 18.6677 12.9063 3 
2.87131 20.1025 14.3421 3 
1.43449 18.6677 15.7778 3 
4.30572 18.6681 12.9065 3 
7.17586 18.6695 12.9067 3 
5.74091 20.1045 14.3421 3 
4.30573 18.6681 15.7777 3 
7.17583 18.6695 15.7776 3 
5.74036 17.2335 14.3422 3 
10.0462 18.6704 12.9068 3 
11.4816 20.1063 14.3422 3 
11.4815 17.2352 14.3422 3 
10.0462 18.6704 15.7776 3 
8.61081 17.2345 14.3422 3 
8.61095 20.1058 14.3422 3 
12.9172 18.6709 12.9068 3 
15.7881 18.6707 12.9068 3 
14.3525 17.2353 14.3422 3 
12.9172 18.6709 15.7776 3 
15.7881 18.6707 15.7776 3 
14.353 20.1067 14.3422 3 
18.6595 18.6706 12.9067 3 
17.2239 17.2351 14.3422 3 
17.2237 20.1062 14.3422 3 
20.0959 20.1065 14.3422 3 
18.6596 18.6706 15.7777 3 
20.0956 17.2355 14.3422 3 
22.9692 20.1076 14.3422 3 
21.5317 18.6712 12.9065 3 
24.4031 18.6707 12.9055 3 
22.9671 17.2356 14.3422 3 
21.5317 18.6713 15.7779 3 
24.4032 18.6707 15.7788 3 
28.7094 17.2335 14.3421 3 
27.2742 18.6691 12.9061 3 
25.8388 20.1056 14.3421 3 
28.7114 20.1027 14.3421 3 
25.8377 17.2347 14.3421 3 
27.2742 18.6691 15.7781 3 
2.871 22.9744 14.3421 3 
1.43755 21.5362 12.9061 3 
1.43541 24.4093 12.9063 3 
1.43756 21.5362 15.778 3 
1.43536 24.4093 15.7777 3 
0.00405602 22.9696 14.342 3 
4.30612 21.5393 12.9063 3 
7.17504 24.4127 12.9064 3 
4.30463 24.4115 12.906 3 
7.1757 21.5411 12.9066 3 
5.74022 22.9765 14.3421 3 
4.30608 21.5393 15.7778 3 
7.17568 21.5411 15.7777 3 
4.30458 24.4115 15.7781 3 
7.17495 24.4127 15.7778 3 
11.4815 22.9777 14.3422 3 
10.0461 24.4134 12.9067 3 
10.0461 21.5418 12.9067 3 
10.0461 21.5418 15.7776 3 
10.046 24.4134 15.7776 3 
8.61065 22.9775 14.3421 3 
14.3526 22.9776 14.3422 3 
12.917 24.4134 12.9067 3 
15.7876 24.4126 12.9064 3 
12.917 21.5419 12.9068 3 
15.7889 21.5426 12.9068 3 
12.917 21.5419 15.7776 3 
15.7889 21.5426 15.7776 3 
12.917 24.4134 15.7776 3 
15.7876 24.4126 15.7778 3 
18.664 24.4176 12.9069 3 
18.6588 21.5412 12.9065 3 
18.6588 21.5412 15.7779 3 
18.664 24.4177 15.7774 3 
17.2258 22.9795 14.3422 3 
20.0941 22.9758 14.3422 3 
24.4243 24.4021 12.8754 3 
24.4068 21.5409 12.9017 3 
21.5206 24.401 12.8969 3 
21.5321 21.5414 12.9057 3 
21.5321 21.5414 15.7786 3 
24.4068 21.5409 15.7825 3 
24.4243 24.4021 15.8088 3 
21.5207 24.4011 15.7873 3 
22.9754 22.9756 14.3421 3 
25.8378 22.9789 14.3421 3 
27.2787 24.4068 12.9167 3 
27.2763 21.5382 12.9064 3 
27.2764 21.5383 15.7777 3 
27.2787 24.4069 15.7674 3 
1.43274 27.2787 12.9016 3 
2.86801 25.8468 14.342 3 
1.43265 27.2787 15.7824 3 
7.17434 27.2838 12.9063 3 
4.30291 27.2825 12.9054 3 
5.73892 25.848 14.3421 3 
4.30282 27.2825 15.7787 3 
7.17423 27.2838 15.7779 3 
10.0461 27.2847 12.9065 3 
11.4818 25.8495 14.3421 3 
10.0459 27.2847 15.7777 3 
8.61027 25.8489 14.3421 3 
15.7878 27.2859 12.9057 3 
12.9177 27.2856 12.9064 3 
14.3529 25.8497 14.3421 3 
12.9176 27.2856 15.7778 3 
15.7879 27.2859 15.7785 3 
17.2222 25.8478 14.3421 3 
18.6475 27.2744 12.8969 3 
18.6475 27.2744 15.7873 3 
20.1119 25.8655 14.3421 3 
24.5522 27.1333 12.5043 5 
21.5672 27.3208 12.9197 5 
21.5673 27.3208 15.7645 5 
22.9706 25.7451 14.3421 5 
23.7151 27.9704 14.3422 5 
24.5521 27.1334 16.1797 5 
28.71 28.7101 14.342 3 
28.7066 25.8477 14.342 3 
27.2835 27.2612 12.8753 3 
25.7864 25.8992 14.342 5 
27.2835 27.2612 15.8087 3 
1.4372 1.44556 18.6543 3 
2.86832 2.87888 17.2139 3 
0.00155461 2.88334 17.2179 3 
2.87083 2.88094 20.0876 3 
0.00482635 0.00717226 17.223 3 
0.00457605 2.88584 20.0943 3 
2.86855 0.00630425 17.2156 3 