ITEM: TIMESTEP
95000
ITEM: NUMBER OF ATOMS
2001
ITEM: BOX BOUNDS pp pp pp
0.0000000000000000e+00 2.8712000000000000e+01
0.0000000000000000e+00 2.8712000000000000e+01
0.0000000000000000e+00 2.8712000000000000e+01
ITEM: ATOMS x y z 
1.34191 1.26796 1.50204 
2.9672 2.69618 2.58937 
0.0736104 2.79576 2.90623 
2.79008 2.74445 0.016696 
4.20459 1.28813 1.32698 
7.09615 1.31137 1.40369 
5.72714 2.6122 2.66639 
5.69697 2.83613 0.00189713 
5.72941 0.0406972 2.76124 
10.2846 1.2926 1.32753 
8.46524 2.86114 2.99932 
11.3883 2.98804 2.77014 
11.7877 0.0330994 2.77604 
11.4406 2.82483 0.0592102 
8.77102 3.00696 0.064386 
13.1335 1.56703 1.36276 
15.8456 1.45239 1.5486 
14.284 2.95166 2.92564 
14.4761 0.0913991 3.03207 
12.9229 4.03592 1.28843 
18.7407 1.35885 1.34611 
17.3408 2.92836 2.61888 
20.2944 3.05022 2.83131 
20.122 0.115956 2.74112 
17.3166 0.029384 0.0211513 
17.3092 2.9571 0.128809 
22.8754 2.75304 2.81013 
21.5354 1.53967 1.2951 
24.4511 1.2376 1.32183 
27.4203 1.28364 1.31943 
25.737 2.59389 2.94217 
25.8972 2.76807 0.151643 
1.47139 4.18547 1.40835 
1.3213 7.09101 1.25858 
2.86024 5.50123 2.91223 
0.0052653 5.69656 0.144381 
4.31229 4.23064 1.44379 
4.13844 7.06168 1.57123 
7.135 4.24004 1.43137 
7.10243 7.214 1.51237 
5.79304 5.59643 2.67758 
10.0328 4.21746 1.64078 
9.79584 7.10946 1.53805 
8.46481 5.78977 2.90242 
11.3925 5.64229 2.93011 
8.41412 5.76284 0.223241 
15.6804 4.12361 1.38773 
12.7471 7.14171 1.18945 
15.7376 7.17575 1.27801 
14.2833 5.4872 2.71875 
18.6247 4.43821 1.34587 
18.6097 7.07998 1.44151 
17.2657 5.75524 3.00099 
20.0965 5.73393 2.81493 
20.0286 5.86125 0.0252054 
17.0247 5.67053 0.0223183 
21.5316 4.21752 1.27706 
21.356 7.27869 1.48528 
22.8634 5.59048 2.78707 
24.2112 7.16932 1.44927 
24.2954 4.16836 1.4488 
22.8751 5.93148 0.0218191 
28.6569 5.79663 2.88901 
27.1924 4.13936 1.37721 
27.2028 7.04907 1.53641 
25.8272 5.72498 2.83536 
25.7735 5.7559 0.0138809 
1.41283 10.0254 1.38013 
2.71026 8.67733 2.81983 
2.9288 11.5165 2.94647 
0.0922178 11.4011 2.83694 
4.09772 10.1854 1.52127 
0.0400698 8.67859 0.0579069 
2.9136 8.65229 0.077068 
7.09877 9.95895 1.41551 
5.67261 8.64651 2.99419 
5.70718 11.4974 2.80581 
5.74725 8.60843 0.0979154 
9.88596 9.95425 1.46503 
8.51283 8.60665 2.94623 
10.0306 10.133 4.08241 
11.4268 8.5069 2.9099 
8.43038 11.4731 2.78841 
11.4501 11.5833 2.75089 
8.45906 8.62988 0.0536782 
11.3665 11.355 0.0359529 
11.1899 8.51111 0.090792 
12.7305 9.93295 1.47176 
16.1238 9.87962 1.31045 
12.9963 10.0496 4.08479 
14.4479 8.54952 2.72135 
15.888 10.0461 4.00123 
14.302 11.4508 2.78856 
19.9582 8.67167 0.0880777 
18.7086 10.0644 1.35031 
17.3336 8.45003 2.87039 
20.035 8.7688 2.87768 
17.4193 11.5485 2.65357 
20.1275 11.5709 2.92233 
21.3674 10.2925 1.42108 
22.7582 8.68791 2.8407 
22.9194 11.4369 2.82269 
24.3405 10.1923 4.0931 
24.2578 9.98446 1.32486 
28.5754 8.64009 2.71399 
27.2619 10.0107 1.362 
25.7181 8.57069 2.87776 
25.8645 11.3558 2.61523 
1.34445 12.9349 1.32283 
1.31458 15.8755 1.49154 
2.90185 14.084 2.99944 
2.74002 14.4504 0.0289375 
4.39482 15.8571 1.40003 
4.21022 12.9533 1.38415 
7.07385 12.9592 1.49267 
7.10589 15.8404 1.32892 
5.72846 14.2735 2.80071 
9.93477 12.9164 1.28963 
9.91592 15.8088 1.32531 
8.55587 14.4716 2.73201 
11.3978 14.3123 2.63157 
8.50997 14.4598 0.0589835 
11.6151 14.3872 0.154173 
12.823 12.8769 1.42233 
15.9808 12.8457 1.31064 
12.9541 15.9872 1.45558 
15.809 15.911 1.37853 
14.3371 14.2619 2.67924 
14.3157 14.3726 0.0854904 
18.49 13.0009 1.15528 
18.6377 15.6685 1.3684 
17.287 14.4566 2.9372 
20.0882 14.3801 2.72431 
21.4299 13.0534 1.44067 
21.6709 15.7718 1.41533 
22.8309 14.3297 2.88456 
24.3555 15.7167 1.38546 
24.299 12.8861 1.2844 
28.6864 14.4047 2.81221 
27.4721 12.8603 1.16971 
27.253 15.5247 1.40954 
27.1834 12.7547 4.00142 
25.6844 14.3192 2.98251 
1.37627 18.614 1.56803 
2.90992 17.1254 2.89163 
3.00207 20.1254 2.80992 
0.276296 20.2508 2.98653 
0.0251756 17.0953 2.8818 
3.00116 17.3373 0.00901363 
0.0811084 19.9675 0.0339169 
5.93383 20.0871 0.0248008 
4.54953 18.7256 1.50413 
7.21556 18.6688 1.60561 
5.88397 17.1122 2.94793 
5.80806 20.1812 2.99552 
5.75992 17.2862 0.0461525 
10.0558 18.8261 1.35544 
8.56207 17.0717 2.94548 
11.5079 17.3743 2.91384 
8.49668 20.2682 2.77988 
11.5368 20.1091 2.90215 
8.63459 17.282 0.20747 
8.68086 20.1029 0.0500971 
12.8323 18.6303 1.4562 
15.6128 18.7018 1.3511 
14.4126 17.3312 2.75511 
14.2224 20.0166 2.82487 
20.2004 17.1816 0.0178384 
18.7999 18.8149 1.41081 
17.294 17.3458 2.91907 
20.238 17.0297 2.69903 
17.1157 20.0482 2.90216 
19.9724 20.1247 2.90485 
21.4525 18.6826 1.58825 
24.5124 18.6218 1.47267 
22.9624 17.2346 2.88617 
22.9858 19.9148 2.76136 
23.0009 20.0647 0.0666346 
25.8182 19.9668 0.0461471 
25.7715 17.157 0.0710578 
27.5057 18.7619 1.63837 
25.8664 17.1359 2.97024 
26.0279 20.0632 2.96477 
1.58136 21.496 1.54936 
3.02346 22.9824 2.91704 
1.53633 24.3675 1.48399 
0.0145898 22.8468 2.95896 
0.0333986 22.9325 0.0923613 
2.92135 22.7712 0.0147362 
4.45181 21.5283 1.2237 
7.19958 21.6648 1.5507 
5.86715 22.9812 3.08977 
7.09765 24.4579 1.48497 
4.40133 24.1993 1.36057 
10.1797 21.6054 1.63301 
8.73484 23.1296 3.05364 
11.6881 23.0095 2.8112 
10.2225 24.3766 1.6621 
11.5833 22.9088 0.0675687 
8.85459 22.9649 0.148452 
12.9081 21.5083 1.37039 
15.8186 21.6597 1.54275 
14.3482 22.9165 2.8442 
15.8371 24.4261 1.31805 
12.9268 24.3371 1.34892 
18.5982 21.4516 1.37387 
17.2815 23.2116 2.77493 
19.8677 23.0292 2.87556 
18.4902 24.4401 1.37489 
21.4704 21.5576 1.65286 
24.3697 21.4427 1.41591 
24.3703 21.4268 4.06651 
22.9696 23.0615 2.92586 
21.5638 24.3894 1.51899 
24.2484 24.2654 1.33563 
22.9239 22.8569 0.0565704 
27.4256 21.3449 1.61346 
25.7576 22.8925 2.8268 
27.3876 24.4349 1.52409 
25.8889 23.048 0.0632384 
0.223039 28.6969 2.82647 
2.85591 28.7023 2.95532 
1.45994 27.0634 1.43906 
2.88731 25.8187 2.80466 
2.98432 25.6641 0.0113388 
0.106697 25.7995 0.0884099 
2.77759 28.5856 0.0921251 
4.25005 27.1458 1.67157 
7.23549 27.3525 1.55217 
5.81908 25.7309 2.98056 
5.70578 25.878 0.0291191 
8.7947 28.6934 2.76643 
10.1121 27.3272 1.49498 
8.80995 26.0149 3.07619 
11.732 25.8639 2.97339 
8.70887 25.6163 0.0211848 
8.55057 28.6331 0.102159 
11.6057 28.654 0.102892 
11.481 25.8159 0.136761 
13.0356 27.2206 1.48623 
15.5314 27.264 1.36456 
14.4773 25.7383 2.76588 
14.2809 28.7107 0.109505 
17.1871 28.6608 2.78538 
18.7545 27.3046 1.21823 
17.1491 25.9918 2.83239 
19.9825 25.9261 2.76353 
17.2477 26.1042 0.123749 
20.1642 25.9578 0.0511901 
22.8885 28.4908 2.70483 
21.5002 27.2466 1.48313 
23.1404 25.8524 2.65689 
24.4413 27.1556 1.30513 
25.9503 28.5665 2.93715 
28.5756 26.0265 3.00203 
27.249 27.1909 1.38787 
25.8154 25.7369 2.72076 
26.0393 28.5734 0.0243133 
1.33603 1.50261 4.38103 
1.27132 1.62414 7.15818 
2.80692 2.90813 5.63839 
2.85358 0.138141 5.86645 
4.09961 1.54697 7.23606 
4.36566 1.36329 4.11672 
7.1903 1.29953 4.14258 
4.2377 4.08033 4.26186 
7.27758 1.54357 7.20007 
5.65762 2.72346 5.58136 
5.70427 0.215396 5.76975 
10.2977 1.46517 4.29649 
10.0584 1.4003 7.0387 
8.53578 2.88756 5.83575 
11.5442 2.88522 5.79436 
11.7427 0.00305416 5.77412 
8.73311 0.0222399 5.75144 
13.0727 1.50522 4.52088 
15.9703 1.54554 4.1896 
12.8133 4.08496 4.20512 
13.0982 1.57087 7.31013 
15.8889 1.48839 7.21171 
14.5033 2.93353 5.71799 
14.6121 0.0894465 5.81901 
18.7291 1.4451 4.32997 
18.6686 1.34032 7.12225 
17.3764 2.71809 5.77969 
20.3353 2.66763 5.83174 
21.668 1.31859 4.24771 
24.5405 1.28191 4.39238 
21.6141 1.48817 7.21239 
23.1317 2.88009 5.63563 
24.3623 1.36857 7.17927 
27.3695 1.46988 4.34632 
28.5049 3.00339 5.85191 
27.1338 1.27061 7.19391 
25.9013 2.89089 5.82592 
28.7075 0.0718813 5.84214 
1.31811 4.38043 4.13302 
1.41669 7.28753 4.25913 
1.50423 4.20124 7.22072 
1.55408 7.21953 7.26979 
2.80952 5.67945 5.6762 
0.0583931 5.75268 5.73353 
4.30072 7.06116 4.281 
7.07899 4.40027 4.44995 
7.10689 7.06781 4.34769 
4.2764 7.03143 7.279 
7.14053 4.4002 7.28655 
4.30408 4.46494 7.1 
5.56052 5.58106 5.72768 
7.00829 7.04172 7.1621 
10.0476 4.24033 4.41815 
10.1326 7.0688 4.31582 
10.1067 4.35406 7.1712 
8.57698 5.72974 5.5996 
10.1278 7.10984 7.1429 
11.5004 5.76393 5.72754 
15.8921 4.24913 4.23875 
13.0132 7.02111 4.32285 
15.7894 7.28913 4.37644 
13.0495 4.33185 7.05828 
15.8971 4.11438 7.17516 
12.8372 7.28304 7.09602 
14.4438 5.76121 5.69818 
15.7221 7.26534 7.14574 
18.8179 4.11891 4.34206 
18.6606 7.12592 4.35056 
18.9282 4.32863 7.07612 
17.1682 5.61703 5.77235 
18.5954 7.25511 7.13477 
20.113 5.85972 5.83229 
21.3979 4.18497 4.37189 
21.4414 6.88963 4.19724 
24.2028 7.25222 4.13782 
24.3729 4.30332 4.20518 
21.6168 4.41201 7.30694 
21.7084 7.3851 7.20488 
22.7569 5.73385 5.69572 
24.2992 7.28261 7.23358 
24.1985 4.35012 7.30975 
27.2691 4.27911 4.23843 
27.3593 7.10974 4.2677 
27.2757 4.55945 7.22913 
25.4787 5.79549 5.62744 
27.1924 7.12278 7.19702 
1.38717 10.0733 4.16864 
1.47808 10.058 7.13491 
2.92638 8.61588 5.58467 
2.72713 11.3987 5.64937 
0.0164148 11.4788 5.61665 
4.20007 10.0082 4.2833 
7.10833 9.88598 4.29723 
4.17436 10.05 7.17439 
5.70114 8.60735 5.79252 
7.05794 9.97589 7.1508 
5.67762 11.3719 5.79095 
8.65833 8.5442 5.86208 
10.0706 10.0714 7.13849 
11.5824 8.5842 5.49039 
8.43831 11.5656 5.65783 
11.4275 11.6182 5.67171 
12.7407 10.1871 6.94675 
14.3542 8.64196 5.62794 
15.6384 10.1448 7.09022 
14.4175 11.6024 5.57992 
18.7874 10.1866 4.32558 
20.1113 8.48087 5.61768 
17.16 8.75783 5.72319 
18.677 10.2223 7.22044 
17.1581 11.7521 5.61461 
20.1024 11.6848 5.73453 
21.5205 10.0366 4.3633 
21.5203 10.0888 7.02956 
22.8134 8.57297 5.6195 
23.0028 11.4377 5.79925 
24.4198 10.017 7.09544 
27.2191 9.97231 4.27277 
28.5485 8.72854 5.81406 
25.6656 8.5459 5.50047 
27.1928 10.1053 7.11267 
25.8021 11.3113 5.74576 
1.30075 12.9348 4.20999 
1.40135 15.5459 4.34406 
1.34338 12.81 7.22882 
1.46336 15.6618 7.07457 
2.81064 14.1498 5.62063 
4.32818 12.8572 4.33728 
4.33277 15.7824 4.20707 
7.09793 12.8533 4.20054 
7.08567 15.8112 4.33617 
4.18207 15.6483 7.03582 
4.12777 12.8166 7.21985 
7.14509 12.8423 7.07395 
5.7719 14.3285 5.74844 
7.11877 15.9824 7.25124 
9.96514 12.917 4.21067 
10.2169 15.6034 4.25484 
9.87082 12.8242 7.06071 
8.61505 14.471 5.64184 
10.1049 15.7917 6.99026 
11.4222 14.2743 5.66272 
12.7043 12.9964 4.129 
15.8609 12.9915 4.19694 
13.0082 15.7164 4.26665 
15.7739 15.8149 4.34373 
12.9087 13.0256 7.05245 
15.6719 13.0363 7.14643 
12.8209 15.6747 6.99135 
14.3222 14.2985 5.5314 
15.6204 15.8758 7.38162 
18.7937 12.9475 4.19662 
18.6016 15.892 4.3487 
18.6087 13.0558 7.1423 
17.2474 14.3742 5.68331 
18.528 15.8937 7.33424 
20.017 14.5534 5.76814 
21.5231 12.8644 4.37395 
21.4184 15.8361 4.22921 
24.4497 12.806 4.42947 
24.3696 15.6312 4.314 
21.6515 13.0227 7.10453 
21.5585 15.8703 7.28072 
23.097 14.3829 5.72974 
24.5883 13.0041 7.22355 
24.3087 15.817 7.08201 
27.2797 15.7369 4.3512 
28.6322 14.3138 5.64604 
27.3401 12.9154 7.13335 
25.9121 14.2707 5.64262 
27.357 15.7971 7.05961 
1.60256 18.5437 4.37453 
1.50934 18.4888 7.20831 
2.93492 17.0462 5.69907 
3.181 19.9558 5.56143 
0.196772 20.0791 5.75302 
0.108666 17.2595 5.68048 
4.46331 18.5754 4.39253 
7.14836 18.6669 4.30287 
4.28256 18.6702 7.30318 
5.67884 17.1472 5.78652 
7.20613 18.7735 7.22049 
5.6158 20.1481 5.99003 
9.90678 18.7824 4.3193 
8.597 17.3171 5.6894 
10.0187 18.7519 7.14034 
11.5974 17.2533 5.62985 
8.61086 20.2531 5.83527 
11.2654 20.0707 5.64856 
12.8121 18.6678 4.37114 
15.5712 18.6487 4.36407 
12.7959 18.5428 7.05345 
14.3296 17.2056 5.77864 
15.6161 18.8033 7.14519 
14.2912 20.2535 5.74815 
18.5744 18.691 4.16469 
17.1158 17.456 5.86338 
18.6132 18.8444 7.12693 
19.7587 17.3663 5.80928 
17.2027 20.2588 5.77792 
19.9676 20.2953 5.48495 
21.4694 18.6006 4.32416 
24.4314 18.66 4.31218 
21.4017 18.6843 7.05008 
22.9808 17.2746 5.64273 
22.9724 20.1723 5.61628 
24.5554 18.5927 6.77862 
27.4521 18.7975 4.33972 
25.862 16.9941 5.66052 
27.3843 18.678 7.08021 
25.9375 20.1572 5.68417 
1.72986 21.6485 4.28541 
1.34609 24.3256 4.14916 
1.80408 21.4951 7.10621 
2.98699 23.0893 5.75333 
1.55376 24.2962 7.28155 
0.182191 22.8929 5.72094 
4.37334 21.5324 4.40474 
4.35232 24.2742 4.43079 
7.1853 21.5803 4.41202 
7.43446 24.2742 4.36894 
4.41081 24.5851 7.24196 
4.30284 21.715 7.18397 
7.19766 21.7292 7.18514 
5.74061 23.0516 5.97025 
7.37826 24.606 7.39151 
9.98534 21.4718 4.28878 
10.2428 24.4691 4.40013 
10.1306 21.5418 7.20491 
8.66693 22.9222 5.87865 
11.3929 22.9717 5.62834 
10.1171 24.4634 7.20719 
13.021 21.6312 4.2956 
15.8528 21.3635 4.35062 
13.0024 24.3517 4.25116 
15.7367 24.3336 4.33326 
12.8713 21.669 7.06724 
15.9496 21.6439 7.19761 
14.5917 22.8474 5.71679 
16.0111 24.3301 7.08734 
12.9078 24.3356 7.03739 
18.4969 21.6558 4.21609 
18.6451 24.4236 4.20928 
18.7526 21.5693 7.55101 
17.4005 22.887 5.78412 
20.0914 22.9101 5.91401 
18.667 24.5586 7.09539 
21.4695 21.6618 4.19577 
24.3489 24.5501 4.33416 
21.4047 24.5028 4.49699 
21.5237 21.4328 7.26127 
22.8615 22.8022 5.72509 
24.3405 21.4519 7.23803 
21.5731 24.4382 7.10912 
24.4413 24.3682 7.12343 
27.3984 21.7038 4.25611 
27.2031 24.0396 4.34932 
27.2854 21.7081 7.06082 
25.7241 22.9189 5.66311 
27.4542 24.2722 7.08624 
1.42537 27.3705 4.39391 
1.22797 27.3283 6.97159 
2.88693 25.8689 5.8245 
4.31066 27.2006 4.35275 
7.23431 27.2472 4.33754 
4.26988 27.2095 7.12009 
5.78965 25.686 5.76919 
7.19038 27.2847 7.03602 
10.1529 27.6445 4.48772 
8.7706 25.9479 5.84495 
10.1284 27.3957 7.06077 
11.6557 25.9659 5.83805 
13.1174 27.2909 4.23468 
15.7507 27.2117 4.19048 
13.1197 27.3464 7.17056 
14.4325 25.7669 5.69811 
15.9922 27.3082 7.24755 
18.5878 27.2844 4.23324 
20.1216 28.584 5.73874 
17.3569 28.5637 5.78348 
17.1391 25.8943 5.65066 
18.6453 27.2186 7.22186 
19.9326 25.8782 5.71666 
21.5014 27.1139 4.17783 
24.3948 27.2169 4.35946 
22.9579 28.5738 5.80408 
21.5923 27.2153 7.30944 
22.9309 25.8117 5.7624 
24.5252 27.2886 7.36021 
27.3275 27.3044 4.31507 
28.5818 25.7411 5.71445 
25.8883 28.5953 5.7504 
25.8802 25.839 5.72439 
27.2407 27.1061 6.91925 
2.85625 3.00104 8.76654 
0.098387 0.0534813 8.51975 
1.47145 1.41514 9.9701 
2.8046 3.01807 11.3514 
0.0263739 2.71689 11.3386 
5.65615 2.88954 8.4474 
4.22138 1.43641 10.2445 
7.16608 1.22211 10.0342 
5.81774 2.88385 11.1967 
5.57561 0.00404354 11.5862 
8.55168 3.01294 8.59318 
11.5544 2.8818 8.5545 
11.5843 0.0808666 8.43767 
9.89971 1.5979 9.81228 
8.64408 2.59405 11.604 
11.5353 3.13506 11.6268 
11.6356 0.00257567 11.4242 
14.2682 2.87131 8.74196 
14.474 0.0811992 11.3864 
12.9954 1.39904 10.0779 
15.8769 1.42763 9.94576 
14.2958 3.16219 11.637 
17.356 2.85506 8.63445 
20.1356 2.88696 8.65652 
18.791 1.31464 10.004 
17.0769 2.70866 11.5799 
19.9235 2.87971 11.4299 
22.8864 2.94464 8.71411 
21.5846 1.45055 9.81287 
23.0142 2.94555 11.2637 
24.4446 1.47091 10.0596 
28.5788 2.97622 8.47149 
25.84 3.02046 8.56573 
27.3859 1.48138 9.99469 
25.9275 2.839 11.4743 
28.6777 0.0109146 11.4169 
2.93594 5.89631 8.6577 
0.127039 5.85029 8.52185 
1.30142 4.35364 10.0919 
1.49961 7.36653 9.92396 
2.82211 5.88748 11.4059 
0.110321 5.65672 11.5138 
5.76946 5.91228 8.6822 
4.30236 7.13225 10.1753 
4.41954 4.30275 10.0467 
7.1535 4.63122 10.1277 
7.31494 7.33981 10.0804 
5.90141 5.9432 11.5189 
8.70876 5.72241 8.51919 
11.3965 5.64672 8.70529 
10.1021 4.25641 10.0399 
10.1004 7.16971 9.88046 
8.66127 5.74729 11.5523 
11.3378 5.61399 11.4732 
14.3772 5.89051 8.60208 
12.9342 4.25586 9.97262 
15.9537 4.54943 10.2301 
12.6243 7.11037 10.1172 
15.7419 7.10537 10.1015 
14.3176 5.65038 11.2828 
17.0371 5.81493 8.4184 
20.0444 6.04798 8.57034 
18.5194 4.52641 9.8339 
18.5452 7.38664 10.091 
17.3993 5.70755 11.7203 
20.2569 5.86847 11.5206 
23.036 5.89412 8.72841 
21.3805 4.34535 10.0103 
21.6278 7.33176 10.1061 
23.1447 5.82948 11.4848 
24.4363 7.19666 10.0363 
24.462 4.17373 10.0043 
25.8303 5.74024 8.61365 
27.3896 4.34869 9.93786 
27.3304 7.20615 9.93743 
25.9332 5.87522 11.4406 
3.02111 8.72808 8.60004 
2.91795 11.3971 8.51076 
0.0936048 11.572 8.603 
1.42003 9.94662 10.0289 
2.741 8.69296 11.4961 
2.91317 11.6826 11.6993 
5.74334 8.58541 8.83897 
5.72212 11.2386 8.71838 
4.33435 10.1626 10.2363 
7.16308 10.1129 10.2363 
5.72821 8.60886 11.6166 
5.67475 11.6226 11.5867 
8.67286 8.59289 8.54821 
11.5107 8.57383 8.58781 
8.39194 11.419 8.63617 
11.2859 11.475 8.41171 
11.5838 8.72971 11.4227 
10.1064 10.1132 10.0513 
8.66778 8.53504 11.4426 
8.53262 11.6806 11.5164 
11.5767 11.5204 11.3885 
14.1934 8.53623 8.5469 
14.3167 11.5269 8.47704 
12.7577 10.1684 9.78604 
15.592 10.124 10.0387 
14.1822 8.5798 11.3628 
14.4016 11.7071 11.4632 
17.1278 8.78207 8.4646 
20.0695 8.79104 8.47506 
17.1553 11.6658 8.64116 
19.9392 11.5339 8.5286 
18.4465 10.0563 10.0347 
17.0331 8.78243 11.5038 
19.8872 8.90418 11.4484 
17.1502 11.5896 11.4866 
20.1318 11.4975 11.2821 
22.913 8.78696 8.59406 
23.0582 11.5103 8.57512 
21.5182 10.0693 9.95641 
22.8991 8.77016 11.4278 
23.0023 11.6226 11.4759 
24.3792 10.0894 9.92073 
28.6552 8.70984 8.38482 
25.8069 8.68652 8.68103 
25.8191 11.5955 8.5664 
28.5533 8.66363 11.389 
28.4875 11.613 11.359 
27.1621 10.2005 10.0025 
25.6961 8.77232 11.3181 
25.8112 11.4787 11.5372 
2.76863 14.4165 8.44442 
0.0077644 14.4232 8.65743 
1.58251 12.9151 10.0272 
1.52098 15.6306 9.85331 
2.8191 14.3465 11.486 
5.582 14.3294 8.571 
4.22914 13.0654 10.0593 
4.17187 15.8646 9.99106 
7.02144 12.9907 10.0476 
7.19715 15.9304 9.96018 
5.64045 14.5241 11.5336 
8.63395 14.3234 8.3607 
11.2717 14.2553 8.50243 
9.90816 12.7815 9.9253 
9.88213 15.7225 10.063 
8.62309 14.2035 11.4251 
11.2883 14.3632 11.3664 
14.4076 14.2963 8.61098 
12.7105 12.8406 9.86783 
15.6794 12.9573 10.0574 
12.6998 15.5993 9.79584 
15.7595 15.8865 10.0912 
14.2479 14.4123 11.5145 
17.2671 14.4155 8.61092 
20.0212 14.2759 8.6307 
18.5695 12.9648 10.0175 
18.6771 15.7798 9.98928 
17.1805 14.4026 11.4362 
20.1718 14.3244 11.6975 
22.8573 14.3506 8.5722 
21.5967 12.966 10.0219 
21.4714 15.7998 10.0483 
23.0274 14.1798 11.6311 
24.3592 15.632 10.0523 
24.4651 13.1972 9.88976 
25.8711 14.7086 8.57629 
28.5973 14.2512 11.4732 
27.2656 12.9187 10.091 
27.1999 16.0155 10.0479 
25.761 14.2778 11.5129 
2.75911 17.2834 8.69451 
2.99697 20.2156 8.6406 
0.112723 20.0556 8.42299 
0.0215879 17.1128 8.4837 
1.33235 18.7727 10.047 
2.7329 17.4542 11.4283 
2.89072 20.0582 11.2999 
0.0947403 17.1688 11.4147 
5.69735 17.3078 8.57341 
5.86872 20.3361 8.69908 
4.47902 18.7036 10.0124 
7.18869 18.6315 9.95953 
5.82847 17.2695 11.486 
5.95691 20.2232 11.4583 
8.70182 17.3095 8.73811 
11.3403 17.0109 8.58799 
8.79853 20.3198 8.62792 
11.4069 20.1888 8.55349 
9.93182 18.6822 10.194 
8.67217 17.1362 11.5792 
11.3628 17.2215 11.3734 
8.65971 20.1791 11.6091 
11.3714 20.0298 11.5317 
14.1511 17.23 8.78619 
14.1481 20.1807 8.48627 
12.6363 18.7719 10.034 
15.7106 18.6665 10.0896 
14.2507 17.4082 11.51 
14.3917 20.1863 11.4934 
17.1039 17.4865 8.53065 
20.029 17.3981 8.63575 
17.0293 20.1145 8.70869 
20.1926 19.9782 8.63092 
18.4365 18.6741 10.0034 
17.2347 17.372 11.4317 
19.8889 17.0899 11.5057 
17.0651 20.2333 11.4655 
20.0124 20.0017 11.2992 
22.9114 17.3959 8.71659 
23.0948 19.937 8.36681 
21.3583 18.7821 10.062 
22.9744 17.0421 11.4717 
22.8272 20.0181 11.7264 
24.268 18.8339 10.2334 
25.592 17.4539 8.52837 
25.7946 19.8051 8.71424 
28.6801 20.1952 11.5053 
27.2301 18.6598 10.079 
25.6972 17.2452 11.4828 
25.7447 20.0867 11.5171 
3.01328 23.0054 8.82412 
0.156353 22.8991 8.46981 
1.46587 24.3951 10.0407 
1.52353 21.5634 10.1462 
2.94444 23.1064 11.4077 
0.0345704 22.7871 11.4822 
5.80729 23.0073 8.39853 
4.46277 21.6342 9.95351 
7.25995 24.586 10.0557 
7.15921 21.8157 10.0309 
5.80951 23.2447 11.4489 
8.76861 23.0364 8.63016 
11.4538 23.0653 8.74445 
10.0033 24.599 10.1033 
10.0877 21.5759 10.1192 
8.78728 23.0803 11.6077 
11.5423 22.9328 11.5225 
14.3928 22.9435 8.61124 
15.5845 24.5089 10.0777 
12.8032 24.3903 10.0728 
14.3779 23.0334 11.602 
15.701 21.7635 9.99909 
12.914 21.5226 10.1856 
17.297 23.0751 8.65102 
20.1134 22.9932 8.51883 
18.4634 21.5372 9.97589 
18.6371 24.4549 9.98504 
16.9903 23.0114 11.4151 
20.0338 22.897 11.3496 
22.9163 22.8617 8.53985 
24.3834 21.4957 10.178 
21.3889 24.3384 10.0693 
22.84 23.0278 11.464 
24.2843 24.3315 10.04 
21.621 21.3651 10.2093 
25.8536 22.8581 8.70272 
27.1748 21.5727 9.95371 
25.9044 23.1483 11.3868 
27.369 24.2448 9.88904 
2.89688 28.7008 8.54094 
2.77015 25.9231 8.50235 
0.0664363 25.8033 8.43625 
2.82112 25.9515 11.5262 
2.80979 28.6493 11.6421 
0.25336 25.6626 11.3724 
1.32973 27.3004 9.91341 
5.64616 28.6743 8.59163 
5.86099 25.9366 8.77754 
7.1986 27.4174 10.0212 
5.8858 25.9737 11.6461 
4.29409 27.3273 10.0399 
4.36936 24.6173 10.0949 
8.59084 28.6353 8.60022 
8.81931 26.0835 8.69327 
11.5001 25.8391 8.55708 
11.2817 25.9187 11.5874 
8.61925 25.8819 11.4261 
8.71221 28.6691 11.5725 
10.1658 27.4068 10.0329 
14.4582 28.613 8.68081 
14.1651 25.7072 8.51078 
12.8967 27.1625 10.133 
14.2699 25.9212 11.5469 
15.6917 27.2312 10.1737 
17.3797 28.6961 8.73212 
20.138 28.6963 8.57764 
17.1379 25.7456 8.59839 
20.0665 25.8287 8.68835 
17.3655 28.5791 11.5084 
18.7277 27.2494 10.0622 
19.956 25.889 11.4559 
17.233 25.816 11.3859 
19.9796 28.5958 11.5379 
23.174 28.6629 8.71035 
22.9513 25.9413 8.63851 
21.5452 27.381 10.2287 
22.693 25.6198 11.4547 
24.4093 27.04 10.07 
23.0121 28.6029 11.6642 
25.9242 28.5146 8.69972 
25.8302 25.5654 8.49604 
27.4797 27.1053 10.0134 
26.095 25.7197 11.3368 
25.8454 28.6312 11.3579 
1.42571 1.4235 13.0039 
3.04172 2.87343 14.3559 
1.48124 1.53568 15.7916 
3.12361 0.0603414 14.4878 
4.20973 1.51437 12.9036 
6.98108 1.31209 12.7929 
5.78487 2.87732 13.9411 
4.41717 1.419 15.8162 
7.15384 1.65434 15.979 
10.2494 1.3675 12.832 
8.40482 2.74082 14.2302 
11.4957 2.9885 14.2221 
8.36945 0.0372328 14.3169 
10.1566 1.51874 15.7777 
12.9145 1.47613 12.7294 
15.742 1.49252 12.8458 
14.4214 3.04554 14.3433 
12.9799 1.42222 15.6253 
15.8858 1.49892 15.7607 
14.4841 0.0284404 14.3957 
18.7541 1.40412 12.8738 
18.5898 4.03903 12.8645 
20.35 2.77158 14.2023 
18.6733 1.4412 15.8412 
17.1435 0.152251 14.3652 
17.2214 2.98696 14.3685 
20.1103 0.0144655 14.3744 
21.5219 1.48745 12.5563 
24.5212 1.31067 12.8922 
23.151 2.83678 14.1113 
22.3611 0.690313 14.5438 
21.044 1.43051 16.2628 
27.115 1.42299 12.804 
25.935 2.83733 14.1677 
28.6424 0.104138 14.3104 
28.6521 2.76697 14.4551 
24.6921 1.25325 15.5931 
27.3502 1.41032 15.8232 
1.55942 4.29854 13.0508 
1.54165 7.09957 13.0991 
3.0981 5.49354 14.3021 
0.0141784 5.76477 14.1877 
1.47836 4.39893 15.6683 
1.65011 7.10156 15.4585 
4.37361 4.41228 12.6562 
7.15792 4.35506 12.9224 
4.30038 7.29795 12.9514 
7.2688 7.22454 12.9048 
5.78607 5.73788 14.453 
4.4565 4.39066 15.8473 
4.44204 7.16175 15.7323 
6.99406 4.34502 15.7484 
7.21816 7.31049 15.8918 
9.88818 4.18192 12.9239 
9.91564 7.4144 12.9567 
9.87173 4.2442 15.6711 
9.85924 7.23984 15.6757 
8.68885 5.76335 14.3884 
11.3916 5.78665 14.3562 
12.932 4.46574 13.0196 
15.8648 4.3974 13.0678 
12.9861 7.18694 12.7475 
15.6457 7.17856 12.6337 
15.7535 4.33585 15.7731 
12.8442 4.29346 15.6863 
12.8009 7.17845 15.7279 
15.8171 7.32352 15.8068 
14.3117 5.9621 14.3576 
18.7171 7.23059 12.7336 
20.1456 5.61078 14.2884 
18.6171 4.39195 15.7213 
18.6263 7.4037 15.7514 
17.2937 5.86009 14.3996 
24.5416 4.38065 12.6735 
21.5642 4.31391 12.6697 
21.5292 7.1955 12.8895 
24.313 7.40644 12.8945 
23.0715 5.66973 14.2348 
21.5877 4.21991 15.7222 
21.3652 7.06994 15.6503 
24.3922 7.06253 15.8252 
24.5957 4.31521 15.8382 
27.5172 4.26832 12.8177 
27.0571 7.34455 12.7968 
25.9475 5.8349 14.3069 
27.3547 4.3819 15.7353 
27.3926 7.14627 15.6648 
1.39146 10.1631 12.7929 
2.7768 11.5063 14.2279 
2.93122 8.74476 14.2567 
1.50685 10.1294 15.7791 
4.44578 10.1815 12.8535 
7.15219 10.17 12.7764 
5.79239 8.7298 14.3519 
5.83209 11.6876 14.383 
4.38774 10.1125 15.5639 
7.21541 10.2952 15.9494 
10.0971 10.1427 12.9748 
11.5145 11.6049 14.3143 
8.47344 8.67097 14.2974 
10.0969 10.1675 15.7964 
8.51909 11.3848 14.3996 
11.4769 8.64181 14.4102 
13.0136 10.1452 12.8543 
15.6751 10.1826 12.7747 
14.3669 8.72011 14.2954 
14.3313 11.7304 14.5213 
12.8216 10.098 15.6055 
15.7722 10.3354 15.8248 
18.6669 10.3011 12.9022 
17.0891 8.6526 14.0802 
17.1277 11.4582 14.2561 
20.1472 8.57851 14.29 
18.4368 9.99645 15.8568 
20.0151 11.4319 14.5655 
21.6399 10.0001 12.9921 
24.3671 9.97795 12.94 
22.8147 11.3873 14.3485 
21.406 9.91214 15.903 
24.4852 9.88626 15.7325 
23.0124 8.5524 14.5285 
27.3722 10.0642 12.7034 
28.7079 8.73109 14.183 
25.7711 8.78491 14.2449 
28.6948 11.6061 14.2963 
27.3172 10.0122 15.7385 
26.0017 11.4083 14.388 
1.49837 13.0892 13.0482 
1.31326 15.8304 12.7995 
1.32344 12.9554 15.8793 
1.43617 15.7054 15.7549 
2.92779 14.6057 14.3817 
4.43675 13.1325 13.0374 
4.16336 15.9079 12.8135 
7.12181 13.0922 12.8329 
7.32222 15.8482 12.9636 
4.16874 15.7712 15.8597 
4.16896 13.0663 15.6386 
7.22348 12.9725 15.7261 
7.239 15.8055 15.9808 
5.90494 14.6052 14.4851 
9.97828 12.9697 13.039 
10.0307 15.748 12.9224 
11.5774 14.444 14.3478 
9.95513 12.865 15.7507 
10.0653 15.8515 15.8734 
8.61337 14.5767 14.3706 
12.8242 12.9201 12.7105 
15.7944 13.0879 12.895 
12.7913 15.7699 12.827 
15.8575 15.7571 12.9182 
14.2474 14.2949 14.2764 
12.9261 13.0015 15.783 
15.9828 12.8783 15.8041 
12.8794 15.8479 15.7557 
15.6287 15.9239 15.8345 
18.557 13.0622 12.9186 
18.5328 15.7441 12.9383 
18.5225 12.9234 15.9957 
18.521 15.7365 15.8294 
17.3538 14.2184 14.4816 
20.2179 14.2325 14.578 
21.4527 12.6775 12.99 
21.6489 15.5772 13.0916 
24.2952 15.8105 12.8043 
24.4453 12.8796 13.1007 
21.5714 12.958 15.8416 
21.3408 15.6228 15.9329 
24.3239 15.7118 15.6813 
24.2881 12.8749 15.909 
23.0437 14.405 14.4319 
25.9698 14.3724 14.1387 
27.2384 12.9667 13.0777 
27.2032 15.9946 12.869 
28.6551 14.4966 14.2803 
27.398 12.8748 15.6862 
27.2895 15.7363 15.6628 
2.74675 17.2383 14.2299 
1.47835 18.7279 12.8058 
2.95664 20.0743 14.1808 
0.0841805 17.278 14.1824 
1.5919 18.6886 15.6802 
4.4391 18.6415 12.7707 
7.18849 18.6906 12.8258 
5.95178 20.0856 14.1554 
4.49939 18.9052 15.7755 
7.11096 18.6433 15.9573 
5.63257 17.2406 14.4327 
9.96419 18.6869 13.0398 
11.4281 20.1548 14.2945 
11.6288 17.2454 14.341 
10.1384 18.618 15.7451 
8.48828 17.3849 14.5414 
8.72196 20.193 14.5672 
13.0436 18.6166 12.9166 
15.6714 18.7901 12.961 
14.3424 17.1685 14.3172 
12.9403 18.672 15.8275 
15.832 18.6763 15.7966 
14.0384 20.2678 14.4402 
18.7732 18.63 13.1018 
17.1836 17.2299 14.2831 
17.3219 19.8171 14.3182 
20.0897 20.0317 14.3083 
18.5365 18.4811 15.8016 
20.0902 17.2175 14.4963 
22.7337 20.3704 14.3405 
21.5445 18.606 13.0422 
24.3155 18.6251 12.9169 
22.9188 17.3944 14.5379 
21.5351 18.8138 15.7791 
24.374 18.6612 15.6787 
27.2965 18.5838 12.8383 
25.7173 20.1565 14.3199 
28.7097 20.1564 14.2225 
25.8117 17.222 14.2671 
27.3571 18.7598 15.7118 
3.00062 23.0221 14.2679 
1.57784 21.5166 12.8534 
1.58612 24.4027 12.8695 
1.56661 21.676 15.8214 
1.53857 24.4979 15.783 
4.37794 21.3947 12.6369 
7.33214 24.5064 12.9629 
4.34889 24.5003 12.99 
7.3234 21.7844 13.0126 
5.66084 22.9327 14.1712 
4.4453 21.4966 15.6456 
7.17635 21.3665 15.7976 
4.36957 24.3897 15.8098 
7.08655 24.2303 15.732 
11.5091 23.1529 14.2173 
9.87952 24.5456 12.889 
10.02 21.7469 13.1009 
10.1268 21.6701 15.6878 
9.94191 24.5399 15.7201 
8.70344 23.1504 14.5051 
14.3355 22.9787 14.3503 
13.0524 24.4714 12.8924 
15.8943 24.4096 12.9936 
13.0306 21.548 12.8551 
15.8321 21.5633 13.0123 
12.6803 21.6618 15.7444 
15.6689 21.4694 15.6953 
12.8676 24.4115 15.9492 
18.4973 24.4167 12.8015 
18.5598 21.5439 12.8068 
18.631 21.4477 15.7611 
18.5761 24.3275 15.8216 
17.2861 22.8361 14.3903 
19.9126 22.9364 14.5045 
24.4402 24.4031 12.8647 
24.353 21.6932 12.7955 
21.3919 24.3644 13.0393 
21.2301 21.482 12.9928 
21.3186 21.6104 15.893 
24.4023 21.6187 15.6738 
24.5101 24.4569 15.9357 
21.5729 24.4967 15.7549 
22.8524 23.0469 14.3755 
25.8529 23.0065 14.2671 
27.335 24.4201 12.9469 
27.1355 21.5196 12.7743 
27.3236 21.6015 15.6147 
27.0896 24.5977 15.8427 
28.71 22.8391 14.3787 
1.3604 27.3287 13.0302 
0.0153616 25.6417 14.203 
2.93907 25.8224 14.3722 
1.27624 27.2011 15.9052 
7.1349 27.449 12.8912 
4.28891 27.208 12.9697 
5.79801 26.0252 14.552 
4.28748 27.3555 15.8429 
7.11947 27.4333 15.8402 
5.69385 28.6026 14.4072 
10.0703 27.3653 12.8587 
11.4851 25.8299 14.2569 
11.4465 28.7079 14.2345 
9.87355 27.3826 15.6413 
8.39445 25.9957 14.461 
15.7094 27.3003 12.7966 
12.976 27.4038 13.02 
14.5691 25.791 14.2824 
15.7991 24.6633 15.795 
12.9109 27.3109 15.7144 
15.8817 27.2068 15.7137 
17.2243 25.9854 14.1679 
18.6641 27.2293 12.9416 
18.7113 27.1013 15.7772 
19.8951 25.7492 14.3801 
24.4434 27.0335 12.4804 
21.6176 27.2172 13.0445 
21.6081 27.1656 15.8851 
22.9968 25.5923 14.4203 
23.8514 27.9071 14.3646 
27.3538 27.2515 12.8404 
25.8476 25.9061 14.3456 
24.6348 26.9506 16.2456 
27.447 27.0332 15.8617 
26.1499 28.4396 14.3807 
1.44207 1.5421 18.7481 
2.76809 3.13165 17.0949 
3.98772 1.29113 18.7094 
0.0297852 2.77131 17.1361 
2.74463 2.9393 20.0558 
7.07012 1.3747 18.8347 
5.66005 2.8049 17.414 
5.55983 0.145682 17.4702 
5.73087 2.95249 20.0806 
5.78457 0.120451 20.2738 
10.074 1.40861 18.63 
8.79006 2.79654 16.9778 
11.4022 2.86129 17.2245 
11.4632 0.0391149 16.8941 
8.58099 2.96484 20.1745 
11.4234 3.00288 20.0222 
8.44662 0.077395 20.0995 
11.5666 0.0594837 19.991 
12.7463 1.61156 18.4806 
15.7055 1.61837 18.7634 
14.3053 2.8335 17.2585 
14.4665 0.158475 17.1619 
14.269 2.93935 20.0281 
14.3897 0.0701954 20.1828 
18.6163 1.60463 18.7247 
17.2788 3.00776 17.0303 
20.0467 3.29126 17.3998 
17.1398 2.89258 20.1122 
20.1643 3.00324 20.1029 
17.0081 0.0897135 20.0565 
21.476 1.29401 18.6428 
23.0138 2.61398 17.0213 
24.3435 1.24798 18.5736 
22.9102 2.95281 20.1049 
23.0884 0.024105 20.1543 
28.5236 0.0296758 17.2731 
27.2172 1.41297 18.6319 
25.8676 2.65978 17.1763 
28.5809 2.76935 20.1377 
25.8649 2.86773 20.2584 
25.9639 0.0629493 20.0358 
1.35444 4.25428 18.6222 
1.4285 7.2715 18.7525 
2.80323 5.93149 17.2401 
0.185043 5.7835 17.1228 