ITEM: TIMESTEP
96000
ITEM: NUMBER OF ATOMS
2001
ITEM: BOX BOUNDS pp pp pp
0.0000000000000000e+00 2.8712000000000000e+01
0.0000000000000000e+00 2.8712000000000000e+01
0.0000000000000000e+00 2.8712000000000000e+01
ITEM: ATOMS x y z 
1.53175 1.28125 1.49437 
2.80746 2.92015 2.9266 
0.0589971 2.76576 2.82776 
2.89237 2.78529 0.127717 
0.0189979 2.8583 0.024054 
4.19095 1.21518 1.4441 
7.08507 1.62157 1.39398 
5.40381 2.95136 2.82937 
5.77356 0.0195427 2.92847 
5.62271 0.0388334 0.0865096 
5.60368 2.83055 0.124502 
10.0031 1.43181 1.25202 
8.66016 2.69916 2.63436 
11.5635 2.86218 2.82636 
11.4722 0.0457504 2.90685 
11.5763 2.91994 0.108684 
8.47637 0.0316695 2.70706 
13.0519 1.42562 1.3835 
15.888 1.42757 1.43662 
14.3409 2.88983 2.89788 
14.3285 0.0866951 2.89588 
18.8155 1.48502 1.51993 
17.2733 3.03684 2.80786 
20.1259 2.98865 2.81285 
20.1619 0.0016458 2.97362 
17.3044 0.00302536 2.92166 
20.0199 0.196958 0.0445808 
23.1079 2.86627 2.89306 
21.4314 1.40287 1.46425 
24.4675 1.33402 1.38169 
22.8415 0.131631 2.99259 
23.1272 2.68753 0.0509866 
27.4135 1.32816 1.50874 
25.8313 2.65919 3.03503 
28.7088 0.072158 3.07289 
25.7766 0.0487119 2.95012 
25.7756 2.76304 0.0610928 
1.37964 4.29623 1.53709 
1.53992 7.11566 1.38396 
2.93832 5.84981 3.04882 
0.208839 5.57477 0.0410212 
0.0449778 5.65525 2.92782 
2.91277 5.80513 0.0168859 
4.50641 4.52399 1.48204 
4.44632 7.28374 1.71202 
7.31694 4.32035 1.37929 
7.30551 7.22242 1.55701 
5.88127 5.6509 3.13244 
5.76658 5.87971 0.124376 
10.0774 4.23948 1.46358 
10.015 7.40521 1.56063 
8.51253 5.59117 2.87963 
11.3597 5.85089 2.7359 
11.5156 5.84159 0.133672 
8.89545 5.80585 0.0524405 
12.9968 4.42241 1.49325 
15.7922 4.47955 1.54554 
13.0374 7.12291 1.37333 
15.7895 7.18202 1.31431 
14.3908 5.78572 2.92468 
18.755 4.23672 1.28665 
18.8687 7.22515 1.28215 
17.3328 5.98545 2.81513 
20.0126 5.83456 2.90087 
20.063 5.65316 0.016358 
17.435 5.63996 0.113248 
21.6165 4.17419 1.45363 
21.4454 7.16323 1.44043 
23.0363 5.76864 2.78669 
24.3892 7.0589 1.49299 
24.4628 4.16689 1.52567 
23.0245 5.66085 0.0420523 
27.3213 4.12974 1.49676 
27.382 7.08144 1.3415 
26.0025 5.5464 2.71383 
25.9565 5.74017 0.159028 
1.35964 10.0599 1.58872 
2.81689 8.70565 2.97439 
2.93231 11.4905 3.01269 
2.97541 8.5425 0.0558033 
0.0120946 8.75907 2.72521 
0.13127 11.6161 0.029299 
4.24265 10.0998 1.39875 
7.03716 10.2474 1.35609 
5.85993 8.69532 2.99373 
5.75305 11.5594 2.68878 
5.90947 8.70635 0.0121412 
10.0325 10.1194 1.64954 
8.7003 8.61635 3.00606 
11.6496 8.85538 2.83089 
8.55359 11.5645 3.01997 
11.5688 11.4652 2.86343 
8.6598 8.48163 0.0246389 
11.543 8.7951 0.0937858 
11.4007 11.4333 0.109336 
12.9029 10.1863 1.45969 
15.7004 10.0228 1.21807 
14.2477 8.91997 2.89132 
14.2683 11.5761 2.59515 
18.6283 10.2092 1.24666 
17.0898 8.62514 2.7587 
19.9665 8.58898 2.90807 
17.2815 11.4706 2.78778 
20.1279 11.411 2.72673 
20.1964 8.53184 0.00665913 
21.5293 10.1 1.38907 
22.9352 8.67365 2.75404 
23.0171 11.6121 2.66966 
24.3482 9.89601 4.04287 
24.2778 10.081 1.25356 
23.0601 8.59083 0.00617245 
28.6872 11.5173 2.93924 
28.652 8.47777 0.156587 
27.0284 10.1471 1.45887 
25.7275 8.71035 2.76274 
27.2636 10.1016 4.0999 
25.5836 11.5236 2.6693 
1.67372 13.0999 1.5416 
1.48716 15.9669 1.42678 
2.99396 14.5551 2.88523 
2.87986 14.4468 0.0917415 
0.00765653 14.3741 2.82473 
0.016918 14.5257 0.115488 
4.27005 15.9103 1.4015 
4.24854 12.994 1.58143 
7.15655 12.8825 1.32315 
7.04325 15.8206 1.43798 
5.78136 14.4012 2.87171 
10.0341 13.0442 1.2755 
9.9383 15.7064 1.49985 
8.5096 14.4022 2.83982 
11.4845 14.3684 2.93642 
12.8525 12.996 1.49727 
15.9864 12.8758 1.29212 
12.8993 15.6892 1.42678 
15.8701 15.7448 1.47912 
14.517 14.2012 2.74417 
18.4517 12.8402 1.12692 
18.4924 15.6662 1.31615 
17.3559 14.1058 2.75021 
19.9918 14.4443 2.99535 
19.9949 14.5358 0.0616198 
21.4357 12.9639 1.2164 
21.5017 15.8734 1.36945 
22.8905 14.2844 2.8395 
24.2674 15.7268 1.52313 
24.1913 12.919 1.30033 
22.9357 14.5654 0.00343337 
27.4443 12.7426 1.4308 
27.1012 15.5895 1.54733 
25.889 14.1543 2.77088 
25.906 14.4029 0.0627453 
3.01098 20.1814 0.0192817 
1.54846 18.5841 1.16788 
2.79707 17.3385 2.92043 
2.88405 20.0216 2.772 
0.0170707 17.3127 2.87833 
4.31472 18.6153 1.39569 
7.18999 18.647 1.48621 
5.8477 17.1019 2.98395 
5.83849 20.0672 2.83996 
11.3513 20.199 0.0982519 
10.051 18.5997 1.44544 
8.54698 17.3085 2.91343 
11.4349 17.2065 3.11802 
8.67428 20.0047 3.00755 
11.3603 20.152 2.82813 
8.45251 17.2396 0.0914411 
14.2511 20.0162 0.00146195 
12.8718 18.6183 1.37485 
15.7221 18.5689 1.36148 
14.3231 17.1118 2.78375 
14.4753 19.9307 2.78863 
20.0185 17.3786 0.0704771 
18.5934 18.7514 1.49544 
17.2924 17.1812 2.7408 
19.9503 17.1588 2.86416 
17.198 20.1105 2.79542 
20.0081 20.0425 2.74398 
21.45 18.7046 1.27904 
24.3458 18.7007 1.4666 
22.7867 17.2682 2.90656 
22.9831 20.2004 2.94712 
28.5849 17.3679 0.123668 
28.6499 20.0832 2.83974 
25.774 19.8631 0.0944754 
25.7267 17.1154 0.241835 
27.2586 18.6222 1.5181 
25.8294 17.168 2.82659 
25.8418 20.2407 2.98073 
1.40351 21.4844 1.21354 
2.94144 23.0116 2.95863 
1.33984 24.4842 1.45998 
0.0787195 22.8784 2.56975 
4.44044 21.5759 1.32476 
7.3884 21.4393 1.59834 
5.75529 22.8097 2.92501 
6.96609 24.445 1.45583 
4.38657 24.2967 1.39918 
10.0681 21.6588 1.47905 
8.70309 22.9776 2.98318 
11.3496 23.2181 2.94427 
9.80602 24.4181 1.6014 
8.44282 22.9267 0.173565 
11.5575 22.9975 0.10016 
13.0685 21.4016 1.47383 
15.7021 21.3938 1.36788 
14.4072 22.8421 2.79779 
15.863 24.0783 1.66393 
12.971 24.2844 1.36233 
18.6535 21.5759 1.49383 
17.4335 22.8222 2.9861 
20.0517 22.7226 2.90746 
18.6081 24.4308 1.53189 
19.9585 22.8775 0.0810485 
21.5282 21.4311 1.20939 
24.2748 21.2711 1.31236 
22.7585 22.754 2.78021 
21.4651 24.5324 1.36176 
24.2877 24.4291 1.69505 
22.9715 23.0324 0.151834 
27.2568 21.4681 1.49778 
25.6721 22.9275 2.76139 
27.2722 24.3162 1.35299 
27.0775 24.3066 4.02803 
25.5981 22.8533 0.0655497 
2.90564 28.6391 2.95272 
1.33067 27.2136 1.45741 
2.84977 25.6898 2.85957 
4.05315 27.2201 1.34634 
0.0775716 25.7659 2.85798 
0.0533506 28.6068 0.0372157 
7.07183 27.2611 1.53795 
5.60103 25.8376 2.83593 
9.97771 27.2854 1.45408 
8.45928 25.7102 2.95586 
11.3372 25.73 2.95693 
11.2785 25.7358 0.119864 
8.63533 25.7618 0.188847 
12.7711 27.1981 1.46807 
16.0543 27.4697 1.57341 
14.6514 26.0749 2.80675 
14.378 28.6889 0.141887 
14.4936 25.7751 0.1781 
18.5635 27.1961 1.48054 
17.1793 25.9532 2.91806 
20.0062 25.7958 3.02771 
21.5005 27.2661 1.36043 
22.7749 25.9341 3.04299 
24.4038 27.2712 1.49803 
23.1792 25.8273 0.138997 
22.9019 28.6845 0.0979963 
27.3717 27.2522 1.67049 
25.9205 25.775 2.80445 
25.9347 28.6918 0.157841 
1.3923 1.40267 4.31428 
1.37487 1.28501 7.25113 
2.8207 2.90225 5.76945 
4.17542 1.37099 4.34966 
7.04347 1.43226 4.30106 
6.98738 3.99551 4.34152 
4.24546 1.31861 6.97956 
7.06623 1.48984 7.15939 
5.59505 2.94004 5.84552 
9.83276 1.38073 4.22929 
9.8966 1.51717 7.30499 
8.61711 2.71094 5.80184 
11.2917 2.99961 5.79189 
11.2812 0.132093 5.59471 
8.57702 0.0247035 5.67463 
12.905 1.61074 4.21537 
15.9176 1.50957 4.23061 
12.807 1.47239 7.08387 
15.5154 1.5727 7.02034 
14.3566 2.87934 5.65447 
18.679 1.49612 4.29099 
18.749 1.47604 7.20216 
17.2207 2.81829 5.79019 
20.1185 3.11264 5.67083 
19.9981 0.100702 5.75217 
17.1576 0.172703 5.87822 
21.4042 1.59736 4.2318 
24.2679 1.35761 4.45445 
21.4838 1.55994 7.21612 
23.0288 2.63279 5.8484 
24.4701 1.32529 7.16761 
27.0774 1.32512 4.62252 
28.685 2.67903 5.66122 
27.3098 1.31906 7.24493 
25.733 2.7343 5.85199 
4.09094 4.4857 4.38261 
1.52321 4.32737 4.32562 
1.4455 7.29616 4.23166 
1.344 4.35587 7.22944 
1.31405 7.34928 7.12382 
2.66662 5.84217 5.87464 
4.1934 7.2354 4.38221 
7.17216 7.21408 4.40801 
4.36321 7.17202 7.1508 
7.15051 4.35139 7.15166 
4.18505 4.30094 7.16435 
5.65956 5.61058 6.01186 
7.23424 7.25941 7.21539 
10.0161 4.32152 4.30328 
10.0538 7.12832 4.34201 
10.0606 4.26775 7.2141 
8.58236 5.60782 5.67971 
10.053 7.13995 7.10755 
11.4754 5.79692 5.66225 
12.7571 4.39816 4.40598 
15.968 4.44665 4.26707 
12.7 7.246 4.29524 
15.6255 7.29244 4.20567 
13.0187 4.28414 7.00306 
15.7281 4.44999 7.07843 
13.0125 7.22271 7.06465 
14.3611 5.89793 5.87439 
15.9572 7.2795 7.13682 
18.7979 4.51861 4.32716 
18.61 7.30491 4.49437 
18.7458 4.2592 7.16519 
17.248 5.72695 5.74324 
18.6668 6.95425 7.32853 
20.0933 5.86231 5.80906 
21.7013 4.25504 4.29933 
21.6333 7.13464 4.31931 
24.4288 7.05754 4.33471 
24.4647 4.20931 4.3421 
21.6676 4.27716 7.20873 
21.5397 7.21363 7.12436 
23.0428 5.72871 5.77209 
24.3831 7.17164 7.12317 
24.5289 4.32904 7.18883 
27.3416 4.14805 4.32428 
27.2151 7.31163 4.15126 
28.6088 5.76397 5.64418 
27.2875 4.10293 7.13901 
25.9418 5.51715 5.57727 
27.4266 7.4362 7.10116 
1.44728 10.2392 4.38531 
1.52322 10.2712 7.19414 
2.91019 8.91228 5.87578 
2.83624 11.6263 5.71515 
0.0751558 8.60587 5.5511 
4.45226 10.131 4.29399 
7.2241 10.1138 4.18217 
4.37918 10.2765 7.11064 
5.75978 8.73135 5.76443 
7.26406 10.3053 7.14825 
5.77056 11.5853 5.89203 
10.0338 9.92235 4.28318 
8.67836 8.61484 5.91668 
10.0027 10.2874 7.1801 
11.4275 8.68376 5.7991 
8.60949 11.6882 5.54426 
11.3499 11.5678 5.68001 
12.8654 10.2224 4.46525 
15.7522 10.0387 4.34186 
12.8322 10.2221 7.17869 
14.149 8.86932 5.74676 
15.4436 9.89978 7.24541 
14.3289 11.3491 5.69049 
18.4852 10.176 4.22669 
19.8929 8.67393 5.68259 
17.1429 8.78818 5.87398 
18.6163 9.97704 7.27786 
17.2136 11.4698 5.81787 
20.0405 11.2601 5.75301 
21.4237 10.0983 4.29835 
21.3673 9.86537 7.30758 
22.9452 8.69333 5.65178 
22.7121 11.3081 5.63694 
24.5166 9.80869 7.13368 
28.6666 11.4958 5.59881 
25.9191 8.57099 5.6219 
27.3866 10.0092 6.93726 
25.5931 11.3935 5.6923 
1.47679 12.9741 4.2813 
1.39334 15.732 4.35636 
1.2809 12.86 7.19613 
1.35964 15.6912 7.03334 
2.88983 14.4088 5.71156 
4.34447 12.9236 4.20821 
4.38278 15.8071 4.34907 
7.11413 12.9714 4.20538 
7.18868 15.925 4.28049 
4.3283 15.6711 7.14597 
4.238 13.0199 7.11815 
7.18393 12.8692 7.14417 
5.89813 14.2976 5.67129 
7.28097 15.9142 7.08172 
10.0986 12.9861 4.16114 
9.87497 15.7996 4.30785 
9.93604 13.0293 7.19239 
8.5841 14.3142 5.53572 
9.93684 15.7816 6.9482 
11.5053 14.3773 5.67757 
13.0419 12.8887 4.21454 
15.7232 12.8288 4.25024 
12.8767 15.5854 4.27968 
15.8113 15.6241 4.14766 
12.8445 12.9466 7.13038 
15.7635 12.8175 7.22284 
12.9791 15.6655 7.10779 
14.5062 14.2738 5.65438 
15.7039 15.4586 7.21398 
18.868 12.7577 4.1614 
18.5691 15.7367 4.19112 
18.7541 12.8273 7.08115 
17.189 14.1556 5.64807 
18.6859 15.7359 7.07123 
19.9289 14.3949 5.74457 
21.3158 12.9729 4.16448 
21.3341 15.8429 4.20147 
24.3543 12.8906 4.19963 
24.4484 15.5539 4.24093 
21.5169 12.887 7.00962 
21.6812 15.694 7.15628 
22.8673 14.0855 5.49855 
24.1953 12.7226 7.07888 
24.4289 15.6678 6.96744 
27.2436 12.8322 4.29 
27.3564 15.8615 4.34688 
28.5719 14.3138 5.66504 
27.303 12.8608 6.92756 
25.9036 14.2719 5.73239 
27.2139 15.782 7.0732 
1.37929 18.6419 4.18629 
1.30782 18.5762 7.11853 
2.86215 17.2397 5.57347 
2.93218 20.1729 5.78057 
0.193213 20.1289 5.45999 
0.00947886 17.353 5.69127 
4.25991 18.7061 4.449 
7.21217 18.6226 4.36583 
4.18483 18.4988 7.18041 
5.81881 17.2631 5.90663 
7.25065 18.6592 7.0979 
5.86608 20.0468 5.59026 
10.046 18.7468 4.43052 
8.64727 17.1861 5.63392 
10.1976 18.7034 7.14615 
11.4934 17.1146 5.6522 
8.47685 20.1641 5.71663 
11.4973 20.0423 5.72965 
12.9705 18.5452 4.29727 
15.7995 18.4813 4.48254 
12.8491 18.5534 7.11784 
14.5033 16.8873 5.69952 
15.7612 18.6344 7.17183 
14.3636 20.0457 5.63365 
18.8154 18.5296 4.37403 
17.3967 17.0661 5.6176 
18.5542 18.5669 7.21857 
20.3207 17.237 5.8379 
17.2961 20.0154 5.74608 
20.1437 20.1183 5.87976 
21.6692 18.5519 4.3223 
24.3653 18.6519 4.36911 
21.6985 18.7602 7.03538 
23.0145 16.9576 5.69339 
22.9791 20.1819 5.59722 
24.3656 18.6953 7.04451 
27.1499 18.6871 4.37864 
25.797 17.2174 5.73424 
27.0698 18.6934 7.16213 
25.7535 20.2902 5.74951 
1.59073 21.444 4.11748 
1.38867 24.4307 4.26008 
1.37877 21.5321 7.13391 
2.71875 22.9531 5.82945 
1.31257 24.3202 7.15284 
4.40636 21.431 4.19641 
4.38248 24.3404 4.45627 
7.12394 21.6484 4.2817 
7.03718 24.3741 4.34982 
4.17068 24.334 7.20993 
4.43356 21.4919 7.14187 
6.99368 21.4777 7.25615 
5.77393 22.9828 5.83199 
7.02282 24.5688 7.25182 
10.0225 21.7222 4.33374 
9.84671 24.3603 4.41186 
10.121 21.6497 6.81565 
8.34777 23.0823 5.83931 
11.6477 23.0164 5.69119 
10.1773 24.3957 7.06666 
12.8481 21.4464 4.22747 
15.6751 21.2938 4.25783 
12.9737 24.3708 4.19894 
15.8731 24.1237 4.23908 
13.0549 21.3058 7.20305 
15.562 21.3527 7.19533 
14.3732 22.8839 5.69267 
15.7455 24.3875 7.06819 
12.925 24.6023 6.96899 
18.6096 21.4551 4.36382 
18.6746 24.4527 4.4262 
18.6146 21.46 7.29988 
17.1352 22.9337 5.71519 
20.0834 22.9464 5.69107 
18.5766 24.5591 7.15076 
21.3069 21.4281 4.34583 
24.3498 21.575 4.34951 
24.1547 24.4245 4.42874 
21.4876 24.4346 4.36675 
21.3876 21.4853 7.32411 
22.7193 22.9145 5.71937 
24.2018 21.5811 7.25646 
21.309 24.4416 7.16488 
24.0969 24.3973 7.25344 
27.2743 21.7641 4.23619 
28.5851 23.0045 5.63817 
27.2369 21.5691 7.22576 
25.71 23.0864 5.67269 
27.0853 24.4301 7.15226 
1.51874 27.1508 4.34703 
2.82558 28.6833 5.86695 
1.38458 27.041 7.27791 
2.80808 25.6337 5.71812 
4.1865 27.2154 4.49938 
7.12366 27.2849 4.15835 
5.58966 28.7085 5.77537 
4.21023 27.1922 7.27372 
5.84772 25.9274 5.80535 
7.0217 27.5381 7.06313 
10.0763 27.1382 4.14249 
8.47555 25.8693 5.68291 
10.0059 27.3617 7.07188 
11.4955 25.8654 5.64853 
12.8502 27.2698 4.20179 
15.8527 27.4329 4.46566 
14.1604 28.67 5.68173 
12.7206 27.5555 7.05391 
14.3639 25.7777 5.59825 
15.6335 27.224 7.17037 
18.6722 27.2516 4.47172 
17.1634 25.8392 5.72757 
18.632 27.1405 7.32164 
20.2368 25.8682 5.88562 
21.4657 27.319 4.47728 
24.1873 27.3352 4.24311 
22.8259 28.6144 5.89034 
21.4354 27.2473 7.29443 
22.9353 25.7708 5.89759 
24.3173 27.2181 7.42469 
27.239 27.0859 4.26861 
28.6581 28.439 5.68433 
28.6838 25.7924 5.62852 
25.7742 28.5164 5.68948 
25.5971 25.9212 5.67792 
27.216 27.0608 6.99011 
2.73135 2.78768 8.56589 
0.0943626 2.93364 8.5865 
2.85049 0.100218 8.61709 
1.3457 1.38001 10.0633 
2.88956 2.65264 11.3229 
0.0830667 2.85271 11.4173 
5.52254 2.83042 8.53237 
5.71622 0.0233425 8.50569 
4.34765 1.40153 9.8079 
7.08834 1.49431 10.0226 
5.7363 2.60675 11.5391 
5.76594 0.032846 11.5089 
8.46014 2.89306 8.41799 
11.4872 2.82799 8.6844 
11.5095 0.0870104 8.50712 
8.51397 0.178674 8.52531 
8.67419 0.0766868 11.4578 
9.83443 1.43471 10.0949 
8.57483 2.90143 11.4595 
11.3207 2.95957 11.4623 
11.4458 0.0829961 11.5573 
14.1723 2.82247 8.58664 
14.2264 0.223154 8.51825 
12.9196 1.34678 10.1883 
15.8337 1.51587 9.90634 
14.3955 2.96058 11.4865 
17.2993 2.85567 8.55311 
20.035 2.8747 8.72827 
20.0095 0.0332415 8.58038 
20.0417 0.0486127 11.6147 
17.0158 0.0921105 11.4107 
18.6004 1.49011 9.94547 
17.2012 2.84243 11.2076 
19.9646 2.91386 11.565 
23.2143 2.82262 8.66902 
22.9736 0.0385115 8.59226 
23.1145 0.0446286 11.5251 
21.42 1.43893 10.1839 
22.9281 2.85404 11.2778 
24.4721 1.31409 9.9933 
25.8809 2.75138 8.57498 
27.3501 1.20918 10.0687 
25.9711 3.06125 11.3589 
2.82199 5.71218 8.56993 
1.53719 4.26016 10.0928 
1.2311 7.27357 9.93934 
2.92065 5.76954 11.5265 
5.69384 5.66001 8.56341 
4.4551 6.97214 10.1063 
4.32355 4.18352 9.94318 
7.16386 4.32836 9.97113 
7.24289 7.04044 9.96456 
5.94439 5.71014 11.4035 
8.63095 5.60275 8.46897 
11.577 5.55909 8.52142 
9.89013 4.17054 9.99427 
10.0155 7.08528 9.9556 
8.58345 5.78629 11.4785 
11.3919 5.59926 11.5307 
14.3434 5.92011 8.556 
12.9449 4.31929 10.1967 
15.6292 4.32932 9.8061 
12.8232 7.13285 9.88832 
15.8284 7.15575 10.0947 
14.4244 5.88447 11.3117 
17.0268 5.58594 8.57928 
20.1966 5.61889 8.55331 
18.9042 4.6133 10.029 
18.6495 7.05455 9.84342 
17.1405 5.66855 11.4766 
20.194 5.80015 11.575 
23.0858 5.79879 8.55136 
21.4694 4.30997 10.1987 
21.5795 7.1785 10.0978 
23.0199 5.71385 11.517 
24.5458 7.38667 9.91013 
24.449 4.35905 10.0424 
28.6449 5.74951 8.67181 
25.9394 5.66706 8.51121 
28.7049 5.80282 11.3764 
27.2259 4.31491 9.97519 
27.2534 7.25834 9.878 
25.8435 5.91109 11.426 
2.82553 8.46519 8.61946 
2.92552 11.5545 8.60294 
0.0589703 11.4251 8.58775 
0.141137 8.83448 8.53094 
1.40677 10.0838 10.0317 
2.83329 8.58324 11.4326 
2.92813 11.695 11.1524 
0.082771 11.6741 11.2968 
5.71495 8.6611 8.33278 
5.66504 11.5225 8.72152 
4.29508 9.95772 10.1467 
7.23247 10.0025 9.95366 
5.70508 8.52916 11.3698 
5.73715 11.5191 11.2679 
8.68156 8.66049 8.73866 
11.2826 8.69622 8.46867 
8.5156 11.4831 8.61053 
11.3491 11.7276 8.55437 
11.3639 8.62124 11.3629 
9.89003 9.99086 10.1101 
8.38631 8.52545 11.4624 
8.51958 11.3206 11.3854 
11.1751 11.4133 11.5287 
14.1642 8.7255 8.75359 
14.132 11.5559 8.54474 
12.6976 10.0425 9.99415 
15.8158 9.96133 10.0987 
14.3669 8.68131 11.5135 
14.4175 11.6324 11.573 
17.1564 8.45917 8.63048 
20.1483 8.59661 8.84167 
17.0885 11.508 8.44949 
20.0563 11.557 8.56515 
18.6413 10.0569 9.94941 
17.2621 8.5761 11.4898 
20.0027 8.57557 11.4234 
17.3504 11.5814 11.3974 
20.2683 11.4016 11.4405 
22.789 8.58496 8.5764 
22.9426 11.4256 8.39421 
21.5632 9.95638 9.98537 
22.8898 8.70924 11.2966 
23.0391 11.44 11.2481 
24.5208 10.1395 9.94644 
25.8849 8.61419 8.55693 
25.9469 11.5863 8.44924 
28.5532 8.62861 11.355 
27.3662 10.1803 9.89354 
25.8374 8.88363 11.4467 
25.8071 11.5964 11.3921 
2.88443 14.3204 8.60439 
1.4055 13.0659 9.74777 
1.39856 15.7953 10.0132 
2.96238 14.4796 11.5777 
0.11669 14.2488 11.3428 
5.83105 14.3853 8.3857 
4.36058 13.0484 10.0948 
4.20557 16.0054 9.97145 
7.17596 12.9959 10.0898 
7.2458 15.8567 9.98764 
5.73262 14.4431 11.3827 
8.64186 14.5929 8.59238 
11.4101 14.2722 8.64695 
9.9006 12.9426 10.0791 
10.1925 15.926 10.1433 
8.60296 14.7615 11.4766 
11.3536 14.2945 11.5739 
14.2644 14.2304 8.75797 
12.878 12.901 9.97974 
15.863 12.9998 10.1072 
12.7866 15.7636 9.96459 
15.9309 15.87 9.90408 
14.2559 14.4481 11.4185 
17.3384 14.2288 8.61122 
20.0023 14.3751 8.46595 
18.6841 13.0381 9.98702 
18.8008 15.8778 9.84158 
17.3504 14.6289 11.4367 
20.1412 14.2732 11.3273 
23.0543 14.3288 8.57228 
21.5087 12.9106 9.83733 
21.6377 15.8001 9.91267 
23.014 14.373 11.3195 
24.3842 15.8127 10.0531 
24.2896 12.9452 9.89357 
28.5486 14.5359 8.44623 
25.7852 14.3865 8.55276 
27.3966 12.9172 10.0977 
27.3465 15.9305 10.1145 
25.8417 14.4336 11.3113 
2.69301 17.1026 8.49375 
2.77357 20.1233 8.5212 
0.024167 20.0159 8.53371 
0.0120588 17.4371 8.62926 
1.49097 18.658 9.95865 
2.88746 17.229 11.4759 
3.03762 20.044 11.3611 
0.20156 17.1685 11.4427 
5.75466 17.1204 8.61677 
5.69538 20.1116 8.53207 
4.35226 18.5506 9.8746 
7.22307 18.6159 9.82166 
5.80438 17.1443 11.4191 
5.607 20.2151 11.4266 
8.72842 17.3339 8.55347 
11.4664 17.2461 8.59723 
8.64338 20.1419 8.55708 
11.5276 20.0946 8.46184 
10.1598 18.817 9.81327 
8.57495 17.2476 11.3429 
11.3148 17.3228 11.5125 
8.62636 20.0185 11.2795 
11.3538 20.3606 11.4659 
14.3983 17.1785 8.53588 
14.349 19.8724 8.61168 
12.9149 18.8007 10.1333 
15.9801 18.4371 10.0596 
14.2757 17.2071 11.4606 
14.4367 20.1806 11.4068 
17.3172 17.0959 8.35565 
20.2145 17.3559 8.44785 
17.1035 20.0791 8.50694 
20.0077 20.0252 8.65959 
18.6288 18.8409 10.1588 
17.4635 17.1612 11.436 
20.0706 17.2497 11.3276 
17.2982 20.1107 11.6313 
20.2127 20.2797 11.431 
23.0824 17.2114 8.46756 
23.1825 19.9575 8.6145 
21.5815 18.8765 10.0373 
22.9198 17.2055 11.4734 
23.0688 20.2445 11.3506 
24.3213 18.6914 10.032 
25.798 17.2807 8.68466 
26.0197 20.2738 8.63847 
28.7103 20.0207 11.3044 
27.2608 18.5796 10.0299 
25.8699 17.2604 11.5382 
25.8964 20.0666 11.4744 
2.69811 22.6932 8.60037 
1.4173 24.2301 9.85714 
1.13579 21.5708 10.0913 
2.75906 22.9142 11.3953 
0.232142 22.9923 11.7862 
5.74129 22.9266 8.73802 
4.33676 24.3889 10.0306 
4.21624 21.6624 10.0038 
7.29918 24.3834 9.95965 
7.11344 21.5556 9.95142 
5.83783 23.1072 11.529 
8.71007 22.9899 8.43964 
11.5096 22.9145 8.44445 
10.2381 24.4287 9.71053 
10.0627 21.6254 9.79584 
8.83118 22.8964 11.3674 
11.3389 23.0697 11.3686 
14.2611 23.029 8.40617 
15.5871 24.356 9.871 
12.7471 24.5836 9.81596 
14.0863 23.1082 11.1693 
15.8031 21.6162 9.95968 
12.7699 21.6202 10.0276 
17.1217 23.138 8.33454 
20.0154 23.1278 8.64702 
18.6203 21.5961 9.91662 
18.5934 24.4227 10.1674 
17.2259 22.8566 11.5378 
20.1069 23.1027 11.5862 
23.0282 23.0082 8.63209 
21.579 21.5493 9.91874 
24.4255 24.4378 10.0978 
24.3595 21.6233 9.88466 
21.708 24.5318 10.1821 
23.0105 22.9303 11.415 
28.5188 22.9935 8.608 
25.7241 22.8356 8.39892 
27.2185 24.4061 9.93608 
26.0474 22.9034 11.4125 
27.3599 21.4901 10.2327 
0.00271812 28.572 8.72534 
2.77551 25.6652 8.69111 
0.0717202 25.8819 8.58301 
0.0555037 28.5305 11.6431 
1.60561 27.1853 10.0941 
0.185026 25.7413 11.3945 
2.92723 28.5091 11.5247 
2.96982 25.6497 11.5223 
5.71802 25.8247 8.58774 
4.15144 27.2274 9.90992 
5.82572 25.8389 11.4996 
7.07907 27.391 9.99471 
8.66619 26.128 8.57746 
11.4341 26.051 8.43245 
10.1398 27.3866 10.0101 
8.58607 25.73 11.2896 
11.4645 25.8773 11.4842 
14.2446 25.9033 8.49765 
15.5058 27.3137 10.0485 
14.2564 25.7934 11.5682 
12.8448 27.4986 9.94491 
14.3726 28.6152 11.5775 
16.8997 28.6427 8.6018 
17.0024 25.8184 8.65145 
19.9981 25.9227 8.91719 
17.189 25.6689 11.3056 
20.1044 25.9064 11.4916 
18.3699 27.2778 10.0432 
22.8269 25.8028 8.60253 
24.4701 27.2401 10.1731 
23.0397 25.9459 11.5436 
21.6774 27.3905 10.2418 
25.9116 28.6017 8.64493 
25.783 25.9518 8.54045 
25.8672 28.69 11.3993 
25.9815 25.7714 11.5026 
27.2624 27.0471 10.0971 
1.52329 1.52151 12.8902 
0.0399858 2.86484 14.1216 
2.82985 3.03164 14.203 
1.48496 1.53053 15.6174 
4.11575 1.2879 12.9314 
7.19187 1.45278 12.9079 
5.59714 2.79044 14.2422 
4.19924 1.25149 15.729 
7.0265 1.37619 15.8564 
9.84987 1.39497 12.9653 
11.4707 2.79999 14.2023 
9.97232 1.33522 15.6696 
8.53056 2.91912 14.3753 
12.7797 1.52203 12.9058 
15.8706 1.46946 12.8129 
14.4063 0.0618005 14.2367 
12.9516 1.40291 15.8408 
15.8227 1.49083 15.9084 
14.4094 2.74604 14.3876 
18.4839 1.57804 12.7922 
18.7334 1.45835 15.814 
20.1238 2.93547 14.3781 
17.3537 0.00200036 14.4827 
17.2118 2.86868 14.4853 
21.5522 1.69589 12.831 
24.5476 1.6564 12.8858 
23.0663 2.79062 14.3164 
21.7101 0.890771 14.8554 
24.4555 1.39757 15.8274 
27.3415 1.45884 12.5306 
26.0758 0.111865 14.2326 
27.3804 1.48831 15.5685 
25.8947 3.10153 14.4634 
1.49145 4.39719 12.6854 
1.51482 7.35379 12.7384 
3.1113 5.85154 14.1209 
0.12942 5.90362 14.0099 
1.38362 4.30809 15.5095 
1.46599 7.26392 15.6218 
4.35288 4.26014 12.7728 
7.2036 4.27513 12.9534 
4.3691 7.3116 12.9834 
7.17779 7.08064 12.8842 
5.79628 5.65814 14.4586 
4.37887 4.3047 15.6561 
4.11249 7.1169 15.7699 
7.20977 4.12139 15.8252 
7.05438 7.06886 15.8616 
9.87566 4.29098 12.8487 
10.0108 7.09229 12.8838 
8.72238 5.7414 14.3533 
11.4719 5.65103 14.3085 
9.96655 4.20333 15.6111 
10.0468 7.29029 15.8973 
12.9732 4.18831 12.9353 
15.8981 4.54164 13.0402 
12.994 7.00684 12.7626 
15.8665 7.28626 12.8175 
14.2414 5.61755 14.2233 
15.8269 4.11344 15.8714 
12.7812 4.18476 15.7468 
13.0375 7.31975 15.5888 
15.7561 7.3 15.6439 
18.7462 4.37898 13.0148 
18.8214 7.23775 13.0148 
18.7236 4.48002 15.7967 
18.5717 7.17558 15.8647 
17.2801 5.87367 14.4668 
20.2347 5.71671 14.5263 
24.4831 4.24714 12.706 
21.5187 4.37057 13.0467 
21.582 7.33308 13.0982 
24.42 7.26571 12.8891 
22.9821 5.86441 14.249 
21.6135 4.40352 15.7451 
21.4681 7.35183 15.9426 
24.5863 7.1499 15.9069 
24.4918 4.593 15.7351 
27.2853 4.43687 12.659 
27.2172 7.23854 12.8079 
25.8443 5.96884 14.2089 
27.5442 4.43915 15.5616 
27.3662 7.2943 15.5743 
1.47583 10.2166 12.721 
2.88696 8.88972 14.0849 
0.149884 8.61218 14.2709 
2.84924 11.5979 14.2887 
0.0740261 11.5374 14.3989 
1.39582 9.94467 15.6569 
4.15091 10.2558 12.7829 
7.00665 10.1927 12.8806 
5.62596 11.5346 14.326 
4.27706 9.94312 15.7068 
7.2669 10.0232 15.6848 
5.73661 8.72359 14.4314 
9.89351 10.0274 12.9172 
11.2685 11.5274 14.2989 
8.57352 8.54605 14.2923 
8.35216 11.5631 14.1959 
11.4066 8.55557 14.2143 
9.97883 10.0352 15.7972 
12.8816 10.1151 13.0444 
15.8293 10.2448 12.7489 
14.2601 11.6501 14.3123 
14.2402 8.80651 14.2963 
12.726 10.1573 15.5853 
15.7051 9.98748 15.6093 
18.682 10.263 12.8146 
17.3118 11.6034 14.3273 
20.1581 11.6036 14.1646 
17.2317 8.75145 14.1004 
19.8987 8.75784 14.393 
18.6757 10.1424 15.7953 
21.6445 10.0718 12.8002 
24.3125 10.1858 13.0357 
22.9654 8.6138 14.3189 
23.0815 11.4464 14.2785 
21.3888 10.1811 15.5928 
24.3334 10.2144 15.6707 
27.3686 10.1998 12.8185 
25.8544 8.59805 14.2037 
27.1794 9.96573 15.7708 
25.8087 11.6058 14.361 
1.63364 12.963 12.8313 
1.48898 15.7178 12.9324 
1.37505 12.7842 15.9661 
1.52631 16.021 15.7395 
3.02547 14.3715 14.5657 
4.23418 13.0943 12.9481 
4.45648 15.9885 12.9264 
6.84159 13.0089 12.7409 
7.05781 15.7909 12.9314 
4.37112 15.9053 15.8358 
4.1927 12.9922 16.0353 
7.03289 12.9692 15.8341 
7.35096 15.7636 15.7276 
5.69009 14.2929 14.4946 
9.71073 12.9643 12.7064 
10.0997 15.8566 12.9171 
9.84456 12.8925 15.7706 
9.94821 15.8072 15.7294 
11.3616 14.2614 14.3952 
8.42928 14.2528 14.4268 
12.8169 12.9958 12.8743 
15.8427 13.1635 12.8547 
12.6857 15.8981 12.9338 
15.7712 15.8879 12.863 
12.7907 12.9324 15.8228 
15.7833 12.8105 15.9251 
12.853 15.68 15.8117 
15.7836 15.8498 15.6041 
14.4092 14.4226 14.454 
18.7377 13.0044 12.7843 
18.7833 15.7876 12.9078 
17.3359 14.2425 14.2923 
18.6335 12.9757 15.9038 
18.5695 15.8535 15.9355 
20.0845 14.4229 14.4264 
21.5267 12.9699 12.8973 
21.5892 15.8398 13.0734 
24.3881 15.8445 12.9764 
24.3817 13.0088 12.8663 
21.6601 13.009 15.6299 
21.5169 15.8364 15.6565 
24.4887 15.8304 15.9745 
24.5182 13.0617 15.7588 
22.9805 14.4187 14.4082 
27.4048 12.8594 12.9116 
27.3764 15.7175 12.8766 
25.8589 14.277 14.172 
27.1698 12.8388 15.9074 
27.2797 15.5737 15.613 
28.5602 14.1713 14.3878 
1.60903 18.6188 13.0079 
3.16725 20.1692 14.2777 
0.106079 17.2512 14.3481 
2.96899 17.1447 14.3076 
1.7063 18.961 15.7745 
4.40993 18.5465 12.8897 
7.20101 18.5898 12.8963 
6.04177 20.1499 13.9803 
4.3457 18.7132 15.738 
7.22033 18.723 15.7617 
5.85114 17.2614 14.4531 
10.0058 18.6217 12.7832 
8.5679 19.9891 14.352 
11.4232 20.1587 14.1918 
8.81243 17.4033 14.3274 
9.80186 18.8445 15.7313 
11.4488 17.2137 14.4191 
12.8615 18.9222 12.6483 
15.7861 18.5479 12.9769 
14.0092 17.0397 14.1893 
14.3287 20.0826 14.2889 
12.8415 18.6247 15.6211 
15.7012 18.554 15.6422 
18.8351 18.6267 12.8202 
20.2943 17.3218 14.2468 
20.1548 20.1316 14.3345 
18.8295 18.7754 15.7852 
17.3632 17.3015 14.456 
17.1873 20.1213 14.4417 
23.0184 20.148 14.2751 
21.612 18.865 12.8053 
24.4757 18.7662 12.855 
21.6269 18.7787 15.9553 
24.3984 18.8087 15.9725 
22.9564 17.4131 14.4901 
27.5342 18.6553 12.9413 
25.9516 17.2554 14.2745 
28.708 20.318 14.4551 
27.4609 18.5932 15.7607 
25.7773 20.0798 14.4099 
0.121466 22.922 14.3418 
1.4287 21.3549 12.8773 
1.6046 24.407 13.0632 
3.06448 22.9096 14.2931 
1.59759 21.5298 15.7052 
1.52781 24.3968 15.7284 
4.25776 21.5469 12.7689 
7.22671 24.4568 13.0671 
4.39626 24.4634 12.9828 
7.25237 21.521 12.6372 
6.00594 22.7431 14.2487 
4.47218 21.4613 15.8543 
7.30475 21.4885 15.7629 
4.57863 24.1834 15.728 
7.309 24.4393 15.8682 
8.74837 23.0777 14.2936 
10.1124 24.4086 12.6939 
10.0676 21.6886 12.9525 
11.5459 23.0937 14.5488 
9.93381 21.6304 15.738 
10.0525 24.415 15.7235 
14.3963 23.0108 14.3182 
12.9319 24.3265 12.9709 
15.6535 24.2253 12.6747 
12.9754 21.8249 12.7978 
15.8139 21.5855 12.9249 
12.968 21.7253 15.8015 
15.7357 21.54 15.8167 
13.0562 24.3984 15.9599 
18.7585 24.3663 12.9287 
18.63 21.4661 13.1161 
18.5453 21.6245 15.8141 
18.6035 24.4457 16.0094 
20.0616 23.0224 14.3859 
17.2061 23.2531 14.4432 
24.3382 24.2046 12.6148 
24.3073 21.5088 13.0816 
21.482 21.5858 12.9285 
22.8477 23.0764 14.347 
21.4759 21.4885 15.9352 
24.4574 21.7007 15.8662 
21.6034 24.5454 15.8318 
27.4153 21.4326 12.98 
27.4612 24.4158 12.7827 
25.7002 22.9886 14.2227 
27.3174 21.6342 15.6809 
27.3614 24.2544 15.6991 
1.57206 27.1581 13.0212 
0.109466 25.7686 14.2696 
0.0316856 28.6391 13.9722 
2.79959 28.5776 14.3879 
1.39602 27.2353 15.8028 
2.96094 25.7738 14.5267 
4.474 27.1715 12.829 
7.21059 27.2708 12.8833 
5.78466 28.5699 14.3364 
4.30516 27.3034 15.8474 
7.28186 27.1318 15.8129 
5.80452 25.7941 14.3668 
11.5558 28.6806 14.245 
10.0384 27.3716 12.8411 
8.79045 26.0082 14.1061 
11.4901 25.64 14.4679 
10.1046 27.4893 15.8387 
8.4365 28.6897 14.4012 
12.8545 27.2411 13.0337 
15.8901 27.1076 13.0473 
15.7117 24.6239 15.8173 
13.1551 27.4007 15.9471 
15.8945 27.1389 15.7349 
14.3813 25.8578 14.3863 
18.5326 27.2713 12.8228 
19.7907 28.62 14.2908 
17.3251 25.7999 14.3441 
18.657 27.344 15.9661 
19.9018 25.8824 14.4983 
21.4761 27.4372 12.9656 
23.5161 28.607 14.1675 
23.169 25.8823 14.0526 
21.4491 24.6146 13.1036 
24.5443 24.6209 15.6482 
21.8393 27.3487 15.6033 
27.2826 27.1306 12.7532 
24.7 27.322 12.8954 
25.9963 25.6834 14.1997 
24.7101 27.4862 15.6518 
27.4897 27.2266 15.7401 
1.68696 1.50639 18.6422 
2.94765 3.02704 17.157 
0.0497523 2.94689 16.94 
0.0678038 0.0220553 17.1257 
2.97826 2.91342 20.1669 
0.218564 2.73286 19.8204 
2.82308 0.00823338 20.1153 
4.11211 1.56854 18.6923 
7.16228 1.29156 18.685 
5.61617 2.81672 17.108 
5.70182 2.87546 20.0547 
5.56182 0.26835 20.1545 
10.0251 1.28805 18.5759 
8.58429 2.66787 17.2967 
11.3856 2.59635 17.1323 
8.54562 2.90899 20.0131 
11.5313 2.81224 20.0004 
12.8424 1.2875 18.6291 
15.8845 1.41603 18.684 
14.4139 2.724 17.3058 
14.2711 2.88452 20.2495 
18.6406 1.41586 18.8849 
17.2297 3.02525 17.4426 
19.5661 3.05066 17.6475 
17.2131 0.182664 17.2877 
20.2546 0.350456 17.2109 
17.0141 2.67955 20.3537 
20.1299 2.88196 20.1889 
20.1572 0.0733203 20.1821 
21.337 2.31486 16.5689 
21.6106 1.68136 18.8561 
23.3261 3.04887 17.2056 
23.0185 0.0745456 17.2756 
23.1688 2.75758 20.1003 
24.6107 1.34634 18.6417 
27.4192 1.64533 18.4443 
25.9655 2.96002 16.9537 
26.2851 0.0360749 16.9992 
25.7682 2.91717 19.8875 
26.0538 0.198507 19.9837 
1.4326 4.473 18.5045 
1.37729 7.06422 18.6726 
2.85111 5.63815 16.9112 
2.76551 5.72808 20.1337 
7.17925 4.35895 18.7049 