ITEM: TIMESTEP
97045
ITEM: NUMBER OF ATOMS
2001
ITEM: BOX BOUNDS pp pp pp
0.0000000000000000e+00 2.8712000000000000e+01
0.0000000000000000e+00 2.8712000000000000e+01
0.0000000000000000e+00 2.8712000000000000e+01
ITEM: ATOMS x y z c_cna 
1.43385 1.44367 1.4207 3 
2.86979 2.88004 2.85544 3 
2.87037 0.00778173 2.85501 3 
4.30503 1.44384 1.42083 3 
7.17501 1.44375 1.4212 3 
5.7401 2.87989 2.85619 3 
5.74067 0.00777388 2.85585 3 
10.0444 1.44364 1.42116 3 
8.60944 2.87969 2.85656 3 
11.4787 2.87973 2.8558 3 
11.4793 0.00744825 2.85591 3 
8.60997 0.00760175 2.85644 3 
12.9145 1.44365 1.42078 3 
15.7858 1.44393 1.42061 3 
14.3491 2.88007 2.85485 3 
14.3497 0.00746678 2.85511 3 
18.6577 1.44416 1.42083 3 
17.2208 2.88051 2.85483 3 
20.0933 2.88056 2.85554 3 
20.0937 0.00806688 2.85573 3 
17.2214 0.00782974 2.8551 3 
22.9657 2.88002 2.85576 3 
21.5298 1.44399 1.42109 3 
24.4018 1.44354 1.42105 3 
22.9659 0.00773312 2.85602 3 
28.7102 2.87979 2.85525 3 
28.7106 0.00750076 2.85503 3 
27.2739 1.44345 1.42084 3 
25.8379 2.87956 2.85551 3 
25.8382 0.00734126 2.85568 3 
1.43353 4.31563 1.42089 3 
1.43335 7.18709 1.42116 3 
2.86926 5.75173 2.85601 3 
4.30457 4.31579 1.42111 3 
4.30421 7.18719 1.42138 3 
7.17451 4.31574 1.42136 3 
7.17419 7.18732 1.42151 3 
5.73961 5.75166 2.85662 3 
10.0439 4.31575 1.42121 3 
10.0437 7.18762 1.42127 3 
8.60902 5.75162 2.85674 3 
11.4783 5.75204 2.85579 3 
12.914 4.31599 1.42071 3 
15.7853 4.31636 1.42047 3 
12.9137 7.18819 1.42073 3 
15.7851 7.18861 1.42038 3 
14.3486 5.75282 2.85466 3 
18.6574 4.31644 1.42066 3 
18.6575 7.18844 1.42045 3 
17.2204 5.75333 2.8544 3 
20.0933 5.75296 2.85487 3 
21.5297 4.31606 1.42087 3 
21.5299 7.18797 1.42059 3 
22.966 5.75232 2.85519 3 
24.4021 7.18754 1.42074 3 
24.4018 4.3156 1.42091 3 
28.7099 5.75154 2.85562 3 
27.2738 4.31542 1.42087 3 
27.274 7.18724 1.42091 3 
25.8382 5.75184 2.85532 3 
1.43337 10.058 1.42135 3 
2.86885 8.62269 2.85668 3 
2.86889 11.4931 2.85704 3 
4.30404 10.0579 1.42162 3 
7.17415 10.0583 1.42169 3 
5.73924 8.62277 2.85706 3 
5.73928 11.4931 2.85739 3 
10.0438 10.0589 1.42142 3 
8.60886 8.62309 2.85698 3 
11.4783 8.62393 2.85604 3 
8.60923 11.4938 2.85732 3 
11.479 11.4947 2.85665 3 
12.914 10.0596 1.42095 3 
15.7855 10.0598 1.42068 3 
14.3487 8.62491 2.85493 3 
14.3498 11.4952 2.85602 3 
18.6578 10.0596 1.42058 3 
17.221 8.62505 2.85464 3 
20.0937 8.6246 2.85485 3 
17.2217 11.4951 2.85577 3 
20.094 11.4948 2.85579 3 
21.5301 10.0591 1.4207 3 
22.9663 8.62399 2.85517 3 
22.9662 11.4943 2.85595 3 
24.4022 10.0587 1.42087 3 
28.71 8.62304 2.85602 3 
28.7098 11.4934 2.85659 3 
27.274 10.0583 1.42111 3 
25.8384 8.6235 2.85553 3 
25.8382 11.4939 2.85622 3 
1.43343 12.928 1.42147 3 
1.43376 15.7974 1.42121 3 
2.8692 14.3627 2.85696 3 
4.30512 15.7976 1.42139 3 
4.30436 12.928 1.42164 3 
7.17463 12.9284 1.42176 3 
7.17555 15.7982 1.42163 3 
5.73998 14.3629 2.85728 3 
10.0446 12.9293 1.42166 3 
10.0455 15.799 1.42178 3 
8.6101 14.3637 2.85751 3 
11.4802 14.3644 2.85732 3 
12.915 12.9298 1.4214 3 
15.7862 12.9298 1.42118 3 
12.9158 15.7994 1.42166 3 
15.7866 15.7992 1.42144 3 
14.3509 14.3646 2.85699 3 
18.658 12.9295 1.42109 3 
18.658 15.7989 1.42121 3 
17.2222 14.3644 2.85667 3 
20.094 14.364 2.85654 3 
21.53 12.9291 1.4211 3 
21.5298 15.7985 1.42112 3 
22.9659 14.3636 2.85651 3 
24.4018 15.7981 1.42111 3 
24.4021 12.9287 1.42115 3 
28.7097 14.3629 2.8567 3 
27.2739 12.9283 1.4213 3 
27.2738 15.7977 1.42113 3 
25.8379 14.3632 2.85654 3 
1.43432 18.6674 1.42065 3 
2.87009 17.232 2.85598 3 
2.87116 20.1023 2.85481 3 
4.30593 18.6676 1.4209 3 
7.17624 18.6684 1.42138 3 
5.74102 17.2326 2.85662 3 
5.74168 20.1033 2.85593 3 
10.046 18.6691 1.42165 3 
8.61093 17.2336 2.85728 3 
11.4809 17.2342 2.85739 3 
8.61124 20.1042 2.85688 3 
11.481 20.1046 2.85702 3 
12.9162 18.6694 1.4216 3 
15.7868 18.6693 1.42131 3 
14.3513 17.2342 2.85706 3 
14.3514 20.1047 2.85665 3 
18.6579 18.669 1.42101 3 
17.2222 17.2338 2.85658 3 
20.0937 17.2334 2.85617 3 
17.2221 20.1043 2.85597 3 
20.0935 20.1038 2.85545 3 
21.5296 18.6686 1.42079 3 
24.4017 18.6681 1.42068 3 
22.9656 17.2329 2.85592 3 
22.9655 20.1033 2.85505 3 
28.7101 17.2321 2.85576 3 
28.7109 20.1022 2.85456 3 
27.274 18.6676 1.42062 3 
25.8378 17.2324 2.85578 3 
25.8381 20.1027 2.85476 3 
1.4348 21.5386 1.42028 3 
2.87135 22.9744 2.85446 3 
1.43467 24.411 1.42032 3 
4.306 24.4112 1.42054 3 
4.30622 21.539 1.42058 3 
7.17636 21.5396 1.42114 3 
5.74166 22.9751 2.85561 3 
7.17608 24.4114 1.42106 3 
10.0459 21.5399 1.42142 3 
8.61103 22.9756 2.85658 3 
11.4805 22.9756 2.85649 3 
10.0456 24.4115 1.42127 3 
12.916 21.5401 1.42133 3 
15.7868 21.5403 1.42107 3 
14.3509 22.9756 2.85597 3 
15.7866 24.4118 1.42082 3 
12.9156 24.4115 1.42104 3 
18.6581 21.5401 1.42076 3 
17.2222 22.9758 2.85557 3 
20.0938 22.9755 2.85521 3 
18.6583 24.412 1.42074 3 
21.5298 21.5398 1.42061 3 
24.4019 21.5394 1.42048 3 
22.9658 22.9751 2.85503 3 
21.5301 24.4118 1.42074 3 
24.4021 24.4114 1.42072 3 
28.7114 22.974 2.85422 3 
27.2744 21.5389 1.42036 3 
25.8385 22.9744 2.85469 3 
27.2745 24.4109 1.42052 3 
1.43426 27.2834 1.42051 3 
2.87094 25.8472 2.85466 3 
4.30555 27.2836 1.42062 3 
7.17555 27.2836 1.4211 3 
5.74124 25.8474 2.85562 3 
10.045 27.2835 1.42117 3 
8.61055 25.8475 2.85644 3 
11.48 25.8473 2.85612 3 
12.915 27.2834 1.42089 3 
15.7862 27.2837 1.42067 3 
14.3503 25.8472 2.85542 3 
18.6581 27.284 1.42081 3 
17.2219 25.8475 2.85522 3 
20.094 25.8478 2.85544 3 
21.5301 27.2839 1.42098 3 
22.9662 25.8474 2.85565 3 
24.4021 27.2835 1.42104 3 
28.7111 25.8468 2.85466 3 
27.2742 27.2833 1.42076 3 
25.8386 25.8469 2.85537 3 
1.43525 1.44428 4.28927 3 
1.43851 1.44614 7.15686 3 
2.87128 2.88098 5.72472 3 
4.10545e-05 2.88129 5.72331 3 
2.87232 0.00823903 5.72367 3 
0.00125064 0.0081318 5.72238 3 
4.3059 1.44413 4.29039 3 
7.17514 1.44373 4.29179 3 
4.30595 1.44416 7.16142 3 
7.17491 1.4435 7.16322 3 
5.74024 2.87988 5.72705 3 
5.74088 0.00773501 5.72656 3 
10.0443 1.44357 4.29166 3 
10.0445 1.44351 7.16301 3 
8.60946 2.87955 5.72766 3 
11.4785 2.8798 5.72631 3 
8.60999 0.0075515 5.7275 3 
11.4791 0.00735777 5.72657 3 
12.9134 1.44356 4.29 3 
15.784 1.4439 4.28875 3 
12.9132 1.44373 7.16071 3 
15.7797 1.44378 7.15521 3 
14.3466 2.88057 5.72297 3 
14.3477 0.00692032 5.72374 3 
18.6564 1.44447 4.28945 3 
18.6517 1.44531 7.1543 3 
17.2173 2.88185 5.72128 3 
20.091 2.88273 5.72303 3 
20.0923 0.00799991 5.72415 3 
17.2188 0.00708607 5.7225 3 
21.5293 1.44446 4.29062 3 
24.4019 1.44365 4.29038 3 
21.5272 1.44652 7.15758 3 
22.9658 2.88142 5.72415 3 
24.402 1.44356 7.15823 3 
22.966 0.00769017 5.72535 3 
27.2749 1.44381 4.28952 3 
27.2781 1.44616 7.15568 3 
25.8385 2.88004 5.72383 3 
25.8397 0.00733728 5.72403 3 
1.43366 7.18741 4.2912 3 
1.4345 4.31642 4.29002 3 
1.43631 4.31819 7.1592 3 
1.43356 7.18725 7.16239 3 
2.87001 5.75241 5.72615 3 
7.17463 4.31568 4.29212 3 
4.30521 4.31616 4.29109 3 
4.30446 7.18742 4.29196 3 
7.17422 7.18724 4.29252 3 
4.30417 7.18699 7.16354 3 
7.17447 4.3153 7.16358 3 
4.30514 4.3161 7.16239 3 
5.73964 5.75155 5.72769 3 
7.17411 7.18677 7.16404 3 
10.0438 4.31574 4.29171 3 
10.0435 7.18774 4.29189 3 
10.0439 4.31561 7.16303 3 
8.60905 5.75144 5.72791 3 
10.0436 7.18756 7.16336 3 
11.4779 5.75239 5.7263 3 
12.9127 4.31642 4.2897 3 
15.7831 4.31749 4.28815 3 
12.9125 7.18914 4.28986 3 
15.783 7.19073 4.28804 3 
12.9122 4.31715 7.16023 3 
15.7777 4.32058 7.15361 3 
12.9118 7.19014 7.16072 3 
14.3458 5.75471 5.72258 3 
15.7778 7.19581 7.15442 3 
18.6557 4.31811 4.2885 3 
18.6563 7.1906 4.28821 3 
18.6492 4.32453 7.15098 3 
17.2165 5.75724 5.72013 3 
18.6531 7.19589 7.15371 3 
20.0919 5.7564 5.72137 3 
21.5293 4.31738 4.2895 3 
21.5299 7.18978 4.28886 3 
24.4028 7.18894 4.28942 3 
24.4023 4.31655 4.28965 3 
21.5285 4.32194 7.15436 3 
21.53 7.1939 7.15536 3 
22.9667 5.75492 5.72261 3 
24.4048 7.19212 7.15707 3 
24.4048 4.3197 7.15579 3 
27.2743 4.31591 4.28978 3 
27.2748 7.18817 4.29005 3 
28.7105 5.75211 5.72517 3 
27.275 4.31647 7.15864 3 
25.8398 5.75364 5.7234 3 
27.2767 7.18995 7.15928 3 
1.43357 10.0583 4.29197 3 
1.43324 10.058 7.16359 3 
2.86877 8.62258 5.72777 3 
2.86864 11.493 5.72843 3 
4.30398 10.0579 4.2928 3 
7.17411 10.0581 4.293 3 
4.3036 10.0574 7.16435 3 
5.73912 8.62249 5.72843 3 
7.17402 10.0577 7.1645 3 
5.73908 11.4929 5.72887 3 
10.0437 10.059 4.29239 3 
8.60887 8.62288 5.72832 3 
10.0439 10.0586 7.16407 3 
11.478 8.62432 5.7269 3 
8.60925 11.4936 5.72881 3 
11.4791 11.4946 5.72815 3 
12.9132 10.0605 4.29084 3 
15.7846 10.0611 4.28986 3 
12.9134 10.0603 7.16288 3 
14.3465 8.62713 5.72378 3 
15.7835 10.0618 7.16081 3 
14.3494 11.4956 5.72695 3 
18.6573 10.0608 4.28978 3 
20.0932 8.62698 5.72313 3 
17.219 8.62779 5.72265 3 
18.6565 10.0613 7.16043 3 
17.2213 11.4956 5.72644 3 
20.0939 11.495 5.72649 3 
21.5301 10.0602 4.2901 3 
24.4026 10.0596 4.29055 3 
21.53 10.0604 7.16094 3 
22.9668 8.62595 5.72394 3 
22.9663 11.4945 5.7268 3 
24.4027 10.0596 7.16165 3 
27.2745 10.059 4.29116 3 
28.7107 8.62377 5.72619 3 
28.7098 11.4935 5.72778 3 
25.8395 8.62495 5.72486 3 
27.2745 10.0589 7.16254 3 
25.8383 11.494 5.72719 3 
1.43338 12.9281 4.29251 3 
1.43384 15.7973 4.29186 3 
1.43298 12.928 7.16409 3 
1.43375 15.7974 7.16335 3 
2.86902 14.3627 5.72832 3 
7.17459 12.9284 4.29324 3 
4.30427 12.928 4.29297 3 
4.30519 15.7974 4.29236 3 
7.17552 15.7982 4.293 3 
4.30485 15.7977 7.16403 3 
4.3039 12.9278 7.16451 3 
7.17445 12.9282 7.16472 3 
5.73978 14.363 5.72882 3 
7.17537 15.7984 7.1645 3 
10.0446 12.9292 4.29306 3 
10.0456 15.7991 4.29326 3 
10.0448 12.929 7.16459 3 
8.61006 14.3637 5.72902 3 
10.0457 15.7992 7.16473 3 
11.4804 14.3644 5.72886 3 
12.9149 12.9299 4.2924 3 
15.7861 12.93 4.29193 3 
12.9159 15.7994 4.29304 3 
15.7867 15.7992 4.29259 3 
12.9152 12.9297 7.16416 3 
15.7862 12.9299 7.16353 3 
12.9162 15.7996 7.16461 3 
14.351 14.3647 5.72841 3 
15.7871 15.7994 7.16425 3 
18.658 12.9297 4.29177 3 
18.658 15.7988 4.29217 3 
18.6581 12.9295 7.16327 3 
17.2224 14.3644 5.72805 3 
18.6584 15.799 7.16383 3 
20.0941 14.364 5.72783 3 
21.53 12.9292 4.29177 3 
21.5298 15.7984 4.29189 3 
24.4021 12.9288 4.29189 3 
24.4017 15.7979 4.29175 3 
21.5301 12.929 7.1633 3 
21.53 15.7986 7.16345 3 
22.9659 14.3636 5.72775 3 
24.402 12.9286 7.16344 3 
24.4018 15.7983 7.16322 3 
27.2739 12.9284 4.29215 3 
27.2738 15.7975 4.2917 3 
28.7096 14.3629 5.72793 3 
27.2736 12.9283 7.16373 3 
25.8378 14.3632 5.72779 3 
27.2739 15.7978 7.16312 3 
1.43527 18.6661 4.28975 3 
1.43637 18.6655 7.16061 3 
2.87051 17.2317 5.72681 3 
2.87337 20.1002 5.72358 3 
0.000849307 20.0995 5.72242 3 
4.30675 18.6668 4.29073 3 
7.17638 18.6683 4.29229 3 
4.30658 18.6671 7.16268 3 
5.74096 17.2327 5.72805 3 
7.17618 18.6688 7.16396 3 
5.74207 20.103 5.72674 3 
10.0461 18.6692 4.29294 3 
8.61093 17.2339 5.72878 3 
10.0462 18.6697 7.16448 3 
11.4811 17.2345 5.72891 3 
8.61123 20.1044 5.7282 3 
11.4811 20.1048 5.7284 3 
12.9162 18.6695 4.29278 3 
15.7866 18.669 4.292 3 
12.9166 18.6699 7.1644 3 
14.3515 17.2344 5.72853 3 
15.7869 18.6694 7.16371 3 
14.3514 20.1048 5.72781 3 
18.6575 18.6683 4.29117 3 
17.2223 17.2338 5.72785 3 
18.6575 18.6684 7.16261 3 
20.0937 17.2333 5.72722 3 
17.2214 20.1036 5.72628 3 
20.0925 20.1024 5.72484 3 
21.5293 18.6677 4.29048 3 
24.4017 18.667 4.29 3 
21.5292 18.6677 7.16162 3 
22.9656 17.2327 5.72673 3 
22.965 20.1013 5.7238 3 
24.4019 18.6669 7.1608 3 
27.2745 18.6664 4.28968 3 
28.7105 17.2317 5.72628 3 
25.838 17.2322 5.72638 3 
27.2753 18.666 7.16022 3 
25.8387 20.1003 5.72293 3 
1.43692 21.5366 4.28786 3 
1.43685 24.4098 4.28793 3 
1.44206 21.5315 7.15417 3 
2.87414 22.9725 5.72236 3 
1.44217 24.4066 7.1534 3 
0.00340753 22.9701 5.71987 3 
4.30752 21.5381 4.28966 3 
4.30726 24.4108 4.28952 3 
7.17657 21.5395 4.29172 3 
7.17623 24.4114 4.29151 3 
4.30779 24.41 7.16005 3 
4.30821 21.5371 7.16049 3 
7.17647 21.5397 7.1632 3 
5.7421 22.9748 5.72611 3 
7.17606 24.4115 7.16287 3 
10.0454 24.4115 4.29198 3 
10.0459 21.54 4.29241 3 
10.046 21.5405 7.16396 3 
8.61104 22.9758 5.72773 3 
11.4805 22.9757 5.72761 3 
10.0456 24.4118 7.16348 3 
12.9157 21.5399 4.29192 3 
15.7865 21.5399 4.29121 3 
12.9149 24.4111 4.29101 3 
15.7856 24.4109 4.29 3 
12.916 21.5403 7.16358 3 
15.7866 21.5401 7.1625 3 
14.3501 22.9749 5.72615 3 
15.7838 24.4091 7.15925 3 
12.9149 24.4111 7.16238 3 
18.6572 21.5391 4.29003 3 
18.6577 24.4114 4.28976 3 
18.6554 21.5374 7.15934 3 
17.2216 22.9752 5.72522 3 
20.0922 22.9737 5.7234 3 
18.6571 24.4109 7.15872 3 
21.5291 21.5384 4.28933 3 
24.4019 21.5376 4.28871 3 
24.4025 24.41 4.28931 3 
21.5296 24.4108 4.28957 3 
21.5272 21.5352 7.15703 3 
22.9652 22.9724 5.72249 3 
24.4019 21.5334 7.1552 3 
21.5273 24.4076 7.15579 3 
24.4035 24.4054 7.15422 3 
27.2755 21.5367 4.288 3 
27.2762 24.4093 4.28827 3 
27.2788 21.5314 7.15348 3 
25.8399 22.971 5.72115 3 
27.2827 24.4028 7.15075 3 
1.43608 27.2834 4.28862 3 
1.44027 27.2834 7.15506 3 
2.87335 25.8466 5.72281 3 
0.00263154 25.8454 5.72108 3 
4.30662 27.2836 4.28986 3 
7.1757 27.2836 4.29158 3 
4.30679 27.2833 7.1606 3 
5.74151 25.8473 5.72617 3 
7.17548 27.2835 7.16296 3 
10.0449 27.2834 4.29173 3 
8.61053 25.8476 5.72753 3 
10.0451 27.2836 7.16316 3 
11.4798 25.8473 5.72698 3 
12.9141 27.2831 4.2904 3 
15.7848 27.283 4.28928 3 
12.9141 27.283 7.16142 3 
14.3488 25.8463 5.7247 3 
15.7815 27.281 7.1569 3 
18.6571 27.2835 4.2896 3 
17.22 25.846 5.72337 3 
18.6539 27.2811 7.15579 3 
20.0935 25.8473 5.72387 3 
24.4026 27.2829 4.29052 3 
21.53 27.2838 4.29036 3 
21.53 27.2838 7.15825 3 
22.9662 25.846 5.72407 3 
24.4048 27.2808 7.15748 3 
27.2756 27.2829 4.28927 3 
25.8409 25.8446 5.72284 3 
27.2803 27.282 7.15413 3 
2.87089 2.88088 8.59651 3 
2.87203 0.00792435 8.59497 3 
1.43729 1.44544 10.0298 3 
2.86845 2.87879 11.4702 3 
0.00466171 2.88583 8.58989 3 
0.0016941 2.8833 11.4662 3 
0.00884966 0.0111698 8.58564 3 
2.8687 0.00612312 11.4685 3 
0.00498216 0.00708041 11.4612 3 
4.30427 1.44318 10.0339 3 
5.73953 2.87934 8.59889 3 
7.17437 1.44308 10.0349 3 
5.73852 2.87827 11.4708 3 
5.74001 0.00741207 8.5983 3 
5.73877 0.00678185 11.4702 3 
8.60951 2.87919 8.5992 3 
11.4792 2.87993 8.59796 3 
11.48 0.00761874 8.59833 3 
8.60997 0.00749958 11.4706 3 
10.0451 1.44347 10.0346 3 
8.60953 2.8787 11.4707 3 
11.4804 2.87975 11.4699 3 
11.4812 0.00822669 11.4703 3 
8.60998 0.00748851 8.59908 3 
14.3464 2.88185 8.59372 3 
14.3513 0.00895082 11.4686 3 
12.915 1.44436 10.033 3 
15.7808 1.44582 10.0269 3 
14.3495 2.88263 11.4672 3 
14.348 0.00715154 8.59504 3 
17.207 2.88579 8.5816 3 
20.0811 2.89258 8.58237 3 
20.0859 0.00536583 8.58784 3 
18.6321 1.44499 10.0032 3 
17.2096 2.89474 11.4543 3 
19.9966 2.97713 11.3671 3 
17.2112 0.00399301 8.58579 3 
17.2151 0.00806585 11.4612 3 
22.9685 2.88775 8.58783 3 
22.966 0.00767866 8.59448 3 
22.9661 0.00767932 11.508 5 
21.5201 1.45361 9.99957 3 
22.9984 2.92936 11.4254 3 
24.3965 1.43793 10.026 3 
25.838 2.87944 8.59184 3 
27.2909 1.45791 10.0144 3 
25.83 2.87134 11.4688 3 
25.8462 0.00990798 8.58773 3 
25.8879 0.0397738 11.4254 3 
2.86933 5.75176 8.59834 3 
1.43489 4.31697 10.0327 3 
1.43223 7.18584 10.0349 3 
2.86795 5.75032 11.4708 3 
4.30393 4.31494 10.0348 3 
5.73915 5.7508 8.59949 3 
4.30339 7.18607 10.0354 3 
7.1741 4.31455 10.0352 3 
7.17391 7.18604 10.0355 3 
5.73859 5.74996 11.471 3 
8.60911 5.75091 8.59948 3 
11.4784 5.75234 8.59809 3 
10.0445 4.31515 10.0347 3 
10.044 7.18676 10.0352 3 
8.6092 5.75017 11.4709 3 
11.4794 5.75129 11.4705 3 
14.3449 5.75682 8.59366 3 
12.9135 4.3174 10.0327 3 
15.7772 4.32494 10.0253 3 
12.9132 7.1888 10.0343 3 
15.7809 7.19263 10.0326 3 
14.3482 5.7538 11.47 3 
17.2042 5.76934 8.57978 3 
20.0879 5.76654 8.58164 3 
18.6181 4.35551 9.9916 3 
18.6487 7.19623 10.0254 3 
17.2147 5.75878 11.4704 3 
20.0789 5.76379 11.4544 3 
22.9698 5.76238 8.58587 3 
21.5288 4.34151 10.0033 3 
21.5279 7.19267 10.027 3 
22.9658 5.75838 11.4613 3 
24.4042 7.19078 10.03 3 
24.4166 4.33228 10.0145 3 
28.71 5.75153 8.59683 3 
28.7075 5.74894 11.4705 3 
25.8445 5.75818 8.58997 3 
27.2729 4.31433 10.0317 3 
27.2756 7.18844 10.0328 3 
25.842 5.75507 11.4663 3 
2.86805 8.62182 8.59965 3 
2.86809 11.4926 8.60005 3 
1.43242 10.0572 10.0355 3 
2.8673 8.62097 11.4712 3 
2.86762 11.4923 11.4713 3 
5.73875 8.62184 8.6 3 
5.7388 11.4926 8.60028 3 
4.30311 10.0569 10.0358 3 
7.17386 10.0573 10.0358 3 
5.73843 8.62128 11.4712 3 
5.73854 11.4923 11.4713 3 
8.60896 8.62229 8.59993 3 
11.4785 8.62368 8.59917 3 
8.60926 11.4932 8.60023 3 
11.4794 11.4943 8.59991 3 
11.4789 8.62302 11.4709 3 
10.0441 10.0581 10.0356 3 
8.60899 8.62176 11.4712 3 
8.60922 11.493 11.4713 3 
11.4796 11.494 11.4712 3 
14.3473 8.62624 8.59746 3 
14.35 11.495 8.59928 3 
12.914 10.0596 10.0351 3 
15.7848 10.0603 10.0344 3 
14.3483 8.62512 11.4705 3 
14.3506 11.4946 11.471 3 
17.2168 8.6286 8.59379 3 
20.0918 8.62709 8.59391 3 
17.2213 11.495 8.59832 3 
20.0937 11.4942 8.59824 3 
18.6562 10.0599 10.0329 3 
17.2197 8.6252 11.47 3 
20.0911 8.62388 11.4673 3 
17.2223 11.494 11.4707 3 
20.0939 11.493 11.4701 3 
22.9666 8.62557 8.59524 3 
22.966 11.4936 8.59861 3 
21.5294 10.0585 10.0332 3 
22.9649 8.62215 11.4687 3 
22.9655 11.4923 11.4705 3 
24.4019 10.0579 10.0342 3 
28.7091 11.493 8.59965 3 
28.7102 8.62302 8.59841 3 
28.7084 11.4924 11.4712 3 
28.7088 8.62158 11.4709 3 
25.8395 8.62454 8.59672 3 
25.8378 11.4933 8.59912 3 
27.2735 10.0577 10.0351 3 
25.8375 8.62198 11.4704 3 
25.8369 11.4922 11.4711 3 
2.86851 14.3628 8.59992 3 
1.43236 12.9278 10.0356 3 
1.4331 15.7979 10.0352 3 
2.86811 14.3629 11.4712 3 
5.73949 14.3631 8.60021 3 
4.30349 12.9277 10.0358 3 
4.30444 15.7979 10.0355 3 
7.17428 12.9281 10.0359 3 
7.1752 15.7986 10.0358 3 
5.73925 14.3631 11.4713 3 
8.61003 14.3637 8.60036 3 
11.4806 14.3644 8.6003 3 
10.0448 12.9289 10.0359 3 
10.0458 15.7994 10.0359 3 
8.60997 14.3638 11.4714 3 
11.4807 14.3644 11.4714 3 
14.3515 14.3646 8.60012 3 
12.9156 12.9295 10.0357 3 
15.7869 12.9295 10.0354 3 
12.9165 15.7998 10.0359 3 
15.7877 15.7996 10.0358 3 
14.3519 14.3646 11.4713 3 
17.2228 14.3644 8.59975 3 
20.0944 14.364 8.59952 3 
18.6585 12.929 10.035 3 
18.6591 15.7994 10.0356 3 
17.2235 14.3643 11.4712 3 
20.0949 14.364 11.471 3 
22.966 14.3636 8.59939 3 
21.5301 12.9284 10.0349 3 
21.5304 15.7992 10.0352 3 
22.966 14.3636 11.4709 3 
24.4019 15.7989 10.0349 3 
24.4016 12.9281 10.0352 3 
28.7086 14.3631 11.4711 3 
28.7092 14.363 8.59959 3 
25.8376 14.3633 8.59943 3 
27.273 12.9279 10.0355 3 
27.2735 15.7983 10.0349 3 
25.8372 14.3634 11.4709 3 
2.86996 17.2323 8.59907 3 
2.87259 20.1011 8.59725 3 
1.43514 18.667 10.0342 3 
2.8694 17.2328 11.4709 3 
2.87157 20.1022 11.4703 3 
0.000172911 20.102 11.4699 3 
0.00308071 20.0987 8.59357 3 
5.74062 17.2332 8.59973 3 
5.7415 20.1036 8.59899 3 
4.30597 18.6678 10.0349 3 
7.17596 18.6692 10.0355 3 
5.74036 17.2335 11.4711 3 
5.74108 20.1043 11.4708 3 
8.61083 17.2342 8.60018 3 
11.4813 17.2348 8.60038 3 
8.61114 20.105 8.59983 3 
11.4814 20.1055 8.60005 3 
10.0462 18.6701 10.0358 3 
8.6108 17.2345 11.4713 3 
11.4815 17.2351 11.4715 3 
8.61107 20.1056 11.4712 3 
11.4817 20.106 11.4713 3 
14.352 17.2348 8.6002 3 
14.3521 20.1056 8.59977 3 
12.917 18.6705 10.0359 3 
15.7877 18.6702 10.0357 3 
14.3525 17.2352 11.4714 3 
14.3528 20.1064 11.4714 3 
17.2229 17.2344 8.59978 3 
20.0942 17.234 8.59918 3 
17.2219 20.1043 8.59856 3 
20.0926 20.1028 8.59675 3 
18.6587 18.6697 10.0351 3 
17.2237 17.235 11.4713 3 
20.0953 17.2351 11.4711 3 
17.2234 20.1058 11.4711 3 
20.0947 20.1054 11.4704 3 
22.9659 17.2337 8.59856 3 
22.9654 20.1017 8.59517 3 
21.5302 18.6694 10.0342 3 
22.9666 17.235 11.4705 3 
22.9672 20.1051 11.4687 3 
24.4027 18.6688 10.0331 3 
28.7106 17.2323 8.59812 3 
25.8382 17.233 8.59809 3 
25.8401 20.1002 8.59374 3 
28.7097 17.2333 11.4706 3 
27.2757 18.6674 10.0328 3 
25.8382 17.2342 11.4701 3 
25.8409 20.1034 11.4672 3 
2.87504 22.9704 8.59346 3 
1.44271 24.4022 10.0252 3 
1.439 21.5346 10.0324 3 
2.87174 22.9733 11.4698 3 
0.0156239 22.9579 8.57956 3 
0.00519607 22.9684 11.4703 3 
5.7416 22.9748 8.59794 3 
4.30642 24.4097 10.0325 3 
4.30678 21.5384 10.0341 3 
7.17556 24.4119 10.0346 3 
7.17603 21.5404 10.0351 3 
5.74063 22.9758 11.4704 3 
8.61095 22.9763 8.59939 3 
11.481 22.9764 8.59951 3 
8.61085 22.977 11.4709 3 
10.0462 21.5412 10.0356 3 
10.0459 24.4126 10.0352 3 
11.4815 22.9773 11.4711 3 
14.3508 22.9755 8.59842 3 
12.9167 21.5412 10.0355 3 
15.7879 21.5415 10.0351 3 
14.3521 22.977 11.471 3 
12.9161 24.4122 10.0349 3 
15.7852 24.4103 10.0328 3 
17.2221 22.9758 8.59693 3 
20.0877 22.9692 8.59003 3 
20.0902 22.9723 11.4664 3 
17.2247 22.9784 11.4706 3 
18.6592 24.413 10.0318 3 
18.6566 21.5389 10.0329 3 
22.9622 22.9649 8.5858 3 
22.9663 22.9689 11.4613 3 
21.5155 24.395 10.0145 3 
24.4041 21.5346 10.0269 3 
24.4033 24.3858 10.0032 3 
21.5279 21.5365 10.0301 3 
25.844 22.9608 8.5815 3 
27.2832 21.531 10.0253 3 
25.853 22.9634 11.4543 3 
27.3139 24.3717 9.99143 3 
2.87356 25.8452 8.59356 3 
2.87044 25.8444 11.467 3 
0.0102844 25.8324 11.4542 3 
1.43918 27.2812 10.0268 3 
0.0128877 25.8414 8.58143 3 
5.74079 25.8471 8.59785 3 
7.17486 27.2835 10.0346 3 
5.7396 25.8473 11.4698 3 
4.30499 27.2827 10.0329 3 
8.61051 25.8478 8.59914 3 
11.4805 25.8478 8.59891 3 
11.4815 25.8488 11.4709 3 
8.61046 25.8484 11.4707 3 
10.0456 27.284 10.0349 3 
14.3491 25.8463 8.59658 3 
12.9157 27.2839 10.034 3 
14.3516 25.8484 11.4703 3 
15.7827 27.2817 10.0299 3 
17.2154 25.8414 8.58998 3 
20.0941 25.8479 8.59191 3 
18.6413 27.2693 10.0145 3 
20.1022 25.856 11.4689 3 
17.2184 25.844 11.4664 3 
20.0442 28.6875 11.4255 3 
22.9636 25.8396 8.5878 3 
21.5357 27.2894 10.0261 3 
22.9338 25.798 11.4254 3 
24.412 27.2737 9.99954 3 
25.8509 25.8347 8.58221 3 
27.3 27.2822 10.0031 3 
25.9354 25.7502 11.3671 3 
1.43238 1.44129 12.9056 3 
2.86728 2.87753 14.342 3 
1.4324 1.44132 15.7785 3 
2.86615 0.00410446 14.342 3 
4.30245 1.4416 12.9063 3 
7.17393 1.44251 12.9064 3 
4.30246 1.44164 15.7777 3 
7.1739 1.44256 15.7777 3 
5.73813 2.87776 14.342 3 
5.73807 0.00632658 14.342 3 
8.60993 0.00754389 14.342 3 
10.0455 1.44345 12.9062 3 
8.60952 2.87842 14.342 3 
11.4808 2.87931 14.3421 3 
11.4818 0.00876389 14.3421 3 
10.0455 1.44348 15.7779 3 
12.9169 1.44481 12.9055 3 
15.7872 1.44853 12.9018 3 
14.3539 0.0110433 14.3422 3 
12.9169 1.44483 15.7788 3 
15.7872 1.44855 15.7825 3 
14.3518 2.88044 14.3421 3 
19.9916 0.0123797 14.3421 5 
18.6485 1.46603 12.8755 3 
18.6485 1.46609 15.8088 3 
17.2253 2.87948 14.3422 3 
20.1457 2.82794 14.3421 5 
17.222 0.0171743 14.3422 3 
21.38 1.59378 12.5045 5 
24.3649 1.4064 12.9197 5 
22.2168 0.756733 14.3422 5 
21.3801 1.5938 16.1797 5 
24.365 1.40645 15.7645 5 
22.9615 2.98193 14.3421 5 
28.71 2.87938 14.3421 3 
27.2848 1.45282 12.8969 3 
25.8204 2.86169 14.3421 3 
27.2848 1.45287 15.7873 3 
25.9406 0.00302762 14.3421 5 
1.43253 4.31464 12.9063 3 
1.43117 7.18468 12.9066 3 
2.86749 5.74973 14.342 3 
1.43258 4.31463 15.7777 3 
1.43122 7.18467 15.7775 3 
4.303 4.31389 12.9065 3 
7.17386 4.31391 12.9065 3 
4.30295 7.18542 12.9066 3 
7.1738 7.18557 12.9066 3 
5.73843 5.7496 14.342 3 
4.30304 4.31388 15.7775 3 
4.303 7.18541 15.7774 3 
7.17387 4.31394 15.7775 3 
7.1738 7.18554 15.7774 3 
10.0448 4.31454 12.9064 3 
10.0442 7.18621 12.9065 3 
11.4796 5.75084 14.3421 3 
10.0448 4.31457 15.7778 3 
10.0442 7.18626 15.7776 3 
8.60921 5.74987 14.342 3 
12.9152 4.31579 12.9061 3 
15.7845 4.31791 12.9065 3 
12.9138 7.18795 12.9064 3 
15.7824 7.19101 12.9062 3 
15.7845 4.31794 15.7778 3 
12.9152 4.3158 15.7782 3 
12.9138 7.18794 15.7778 3 
15.7824 7.19106 15.778 3 
14.3489 5.75287 14.3421 3 
18.6532 4.32026 12.9168 3 
18.6557 7.1889 12.9065 3 
20.0942 5.74814 14.3421 3 
18.6533 4.3203 15.7675 3 
18.6557 7.18888 15.7778 3 
17.2159 5.75756 14.3422 3 
21.5078 4.32502 12.8755 3 
24.4115 4.32607 12.8969 3 
21.5253 7.18622 12.9018 3 
24.4001 7.18576 12.9057 3 
22.9567 5.75149 14.3421 3 
21.5078 4.32503 15.8088 3 
21.5252 7.18623 15.7825 3 
24.4 7.18575 15.7785 3 
24.4115 4.32611 15.7873 3 
28.7064 5.7477 14.3421 3 
27.2682 4.30952 12.9068 3 
27.2733 7.18597 12.9064 3 
25.8381 5.75135 14.3421 3 
27.2683 4.30953 15.7773 3 
27.2733 7.18598 15.7778 3 
1.43188 10.0567 12.9067 3 
2.86705 8.62062 14.342 3 
1.43193 10.0566 15.7775 3 
2.86748 11.4921 14.3421 3 
4.30281 10.0565 12.9067 3 
7.17375 10.057 12.9067 3 
5.73835 8.62106 14.342 3 
5.73842 11.4922 14.3421 3 
4.30284 10.0565 15.7774 3 
7.17372 10.0569 15.7774 3 
10.0442 10.0579 12.9066 3 
11.479 8.62279 14.3421 3 
8.60899 8.62156 14.342 3 
8.60918 11.4929 14.3421 3 
10.0441 10.0578 15.7775 3 
11.4797 11.4939 14.3421 3 
12.9143 10.0592 12.9065 3 
15.7856 10.0596 12.9065 3 
14.3487 8.62477 14.3421 3 
12.9143 10.0592 15.7777 3 
15.7856 10.0596 15.7778 3 
14.3508 11.4944 14.3421 3 
20.0944 11.4925 14.3421 3 
17.2206 8.62448 14.3421 3 
20.0932 8.6215 14.3421 3 
18.6578 10.0581 12.9061 3 
18.6578 10.0581 15.7781 3 
17.2228 11.4937 14.3421 3 
21.5289 10.0564 12.9056 3 
24.4003 10.056 12.9065 3 
21.5289 10.0564 15.7787 3 
24.4003 10.056 15.7778 3 
22.9628 8.61955 14.3421 3 
22.965 11.4916 14.3421 3 
28.7081 11.4922 14.3421 3 
28.7083 8.62103 14.3421 3 
27.2725 10.0567 12.9067 3 
25.8364 11.4918 14.3422 3 
27.2725 10.0566 15.7776 3 
25.8362 8.62073 14.3421 3 
1.43201 12.9277 12.9067 3 
1.43269 15.7982 12.9066 3 
2.86798 14.3629 14.3421 3 
1.43204 12.9277 15.7775 3 
1.4327 15.7982 15.7777 3 
4.30328 12.9276 12.9067 3 
4.30423 15.7981 12.9067 3 
7.17418 12.928 12.9067 3 
7.17509 15.7987 12.9067 3 
4.30421 15.7981 15.7776 3 
4.3033 12.9276 15.7775 3 
7.17418 12.928 15.7775 3 
7.17508 15.7987 15.7776 3 
5.73917 14.3631 14.3421 3 
10.0448 12.9288 12.9067 3 
10.0458 15.7995 12.9068 3 
10.0448 12.9288 15.7775 3 
10.0458 15.7995 15.7775 3 
8.60993 14.3638 14.3421 3 
11.4808 14.3644 14.3422 3 
12.9158 12.9294 12.9067 3 
15.7874 12.9292 12.9067 3 
12.9168 15.7998 12.9069 3 
15.7881 15.7998 12.9068 3 
14.3521 14.3645 14.3422 3 
12.9158 12.9293 15.7776 3 
15.7874 12.9292 15.7776 3 
12.9168 15.7998 15.7775 3 
15.7882 15.7997 15.7776 3 
17.2238 14.3643 14.3422 3 
18.6591 12.9286 12.9065 3 
18.6597 15.7997 12.9068 3 
20.0952 14.3639 14.3422 3 
18.6591 12.9285 15.7778 3 
18.6597 15.7997 15.7777 3 
22.966 14.3636 14.3422 3 
21.5302 12.9279 12.9064 3 
21.531 15.7997 12.9066 3 
24.4019 15.7994 12.9064 3 
24.4011 12.9276 12.9066 3 
21.5302 12.9279 15.7779 3 
21.531 15.7997 15.7778 3 
24.4019 15.7994 15.778 3 
24.4011 12.9276 15.7778 3 
28.7084 14.3631 14.3421 3 
27.2725 12.9277 12.9067 3 
27.273 15.7988 12.9065 3 
25.837 14.3634 14.3422 3 
27.2725 12.9277 15.7776 3 
27.273 15.7988 15.7778 3 
2.86923 17.2331 14.3421 3 
1.4344 18.6678 12.9064 3 
1.43444 18.6678 15.7779 3 
2.87127 20.1026 14.3421 3 
4.30567 18.6682 12.9065 3 
7.17581 18.6696 12.9067 3 
5.7409 20.1046 14.3421 3 
5.74029 17.2336 14.3421 3 
4.30568 18.6682 15.7778 3 
7.17581 18.6696 15.7776 3 
10.0463 18.6705 12.9068 3 
11.4816 17.2352 14.3422 3 
8.61076 17.2346 14.3422 3 
8.61101 20.1058 14.3421 3 
10.0463 18.6704 15.7776 3 
11.4817 20.1063 14.3422 3 
12.9173 18.6709 12.9069 3 
15.7883 18.6708 12.9069 3 
14.3527 17.2353 14.3422 3 
14.3531 20.1067 14.3422 3 
12.9173 18.6709 15.7776 3 
15.7883 18.6708 15.7776 3 
18.6597 18.6708 12.9068 3 
17.2241 17.2352 14.3422 3 
17.2239 20.1064 14.3422 3 
20.0959 20.1067 14.3422 3 
18.6597 18.6708 15.7777 3 
20.0958 17.2356 14.3422 3 
22.9693 20.1078 14.3422 3 
21.5318 18.6714 12.9066 3 
24.4031 18.6708 12.9056 3 
21.5318 18.6714 15.7779 3 
24.4032 18.6709 15.7788 3 
22.9671 17.2357 14.3422 3 
28.7093 17.2336 14.3422 3 
25.8388 20.1058 14.3422 3 
27.2742 18.6692 12.9061 3 
25.8377 17.2348 14.3422 3 
27.2742 18.6692 15.7782 3 
28.7113 20.1028 14.3421 3 
0.0040495 22.9697 14.3421 3 
2.87107 22.9743 14.3421 3 
1.4375 21.5362 12.9061 3 
1.43544 24.4092 12.9064 3 
1.43754 21.5363 15.7781 3 
1.43546 24.4093 15.7778 3 
4.30613 21.5393 12.9063 3 
7.17516 24.4126 12.9063 3 
4.30474 24.4113 12.906 3 
7.1758 21.541 12.9065 3 
5.74034 22.9764 14.3421 3 
4.30613 21.5393 15.7779 3 
7.1758 21.5411 15.7777 3 
4.30474 24.4114 15.7782 3 
7.17512 24.4126 15.7778 3 
10.0463 21.5417 12.9067 3 
10.0462 24.4132 12.9066 3 
10.0462 21.5418 15.7776 3 
10.0461 24.4133 15.7776 3 
11.4816 22.9777 14.3422 3 
8.61078 22.9773 14.3421 3 
15.789 21.5427 12.9068 3 
12.9172 21.5419 12.9068 3 
15.7876 24.4127 12.9065 3 
12.917 24.4134 12.9067 3 
14.3527 22.9776 14.3422 3 
12.9172 21.5419 15.7776 3 
15.789 21.5427 15.7777 3 
12.917 24.4134 15.7776 3 
15.7876 24.4127 15.7779 3 
18.6589 21.5414 12.9066 3 
18.664 24.4178 12.9069 3 
17.2259 22.9797 14.3422 3 
18.6589 21.5415 15.7779 3 
18.664 24.4179 15.7775 3 
20.0941 22.976 14.3422 3 
21.5207 24.4013 12.897 3 
21.5321 21.5416 12.9058 3 
24.4068 21.5411 12.9018 3 
24.4243 24.4023 12.8755 3 
22.9754 22.9758 14.3422 3 
21.5322 21.5416 15.7787 3 
24.4068 21.5411 15.7826 3 
21.5207 24.4013 15.7874 3 
24.4244 24.4023 15.8088 3 
27.2787 24.4069 12.9167 3 
27.2763 21.5383 12.9064 3 
27.2763 21.5384 15.7778 3 
27.2788 24.407 15.7675 3 
25.8378 22.9791 14.3422 3 
2.86814 25.8467 14.3421 3 
1.43284 27.2786 12.9017 3 
1.43289 27.2786 15.7825 3 
7.17439 27.2836 12.9062 3 
4.30302 27.2822 12.9054 3 
4.30302 27.2823 15.7787 3 
7.17438 27.2836 15.7779 3 
5.73908 25.8478 14.342 3 
10.046 27.2845 12.9064 3 
11.4818 25.8494 14.3421 3 
8.61039 25.8487 14.3421 3 
10.046 27.2846 15.7777 3 
15.7877 27.2859 12.9057 3 
12.9176 27.2855 12.9064 3 
12.9175 27.2856 15.7779 3 
15.7877 27.286 15.7786 3 
14.3528 25.8497 14.3422 3 
18.6474 27.2745 12.897 3 
20.1119 25.8657 14.3422 3 
17.2221 25.8479 14.3422 3 
18.6474 27.2745 15.7874 3 
21.5672 27.321 12.9198 5 
23.7153 27.9708 14.3421 5 
21.5673 27.321 15.7645 5 
24.5523 27.1336 16.1798 5 
22.9707 25.7455 14.3422 5 
24.5522 27.1335 12.5044 5 
28.7101 28.7101 14.3421 3 
27.2836 27.2612 12.8754 3 
28.7067 25.8477 14.3421 3 
27.2836 27.2612 15.8088 3 
25.7864 25.8993 14.3422 5 
1.43742 1.44553 18.6543 3 
2.86853 2.87881 17.2139 3 
0.00178086 2.88334 17.2179 3 
0.00504523 0.00716567 17.223 3 
2.86876 0.00619252 17.2157 3 
2.87102 2.88095 20.0877 3 
0.00478991 2.8859 20.0943 3 