ITEM: TIMESTEP
97045
ITEM: NUMBER OF ATOMS
18
ITEM: BOX BOUNDS pp pp pp
0.0000000000000000e+00 2.8712000000000000e+01
0.0000000000000000e+00 2.8712000000000000e+01
0.0000000000000000e+00 2.8712000000000000e+01
ITEM: ATOMS x y z c_cna 
22.9661 0.00767932 11.508 5 
19.9916 0.0123797 14.3421 5 
20.1457 2.82794 14.3421 5 
21.38 1.59378 12.5045 5 
24.3649 1.4064 12.9197 5 
22.2168 0.756733 14.3422 5 
21.3801 1.5938 16.1797 5 
24.365 1.40645 15.7645 5 
22.9615 2.98193 14.3421 5 
25.9406 0.00302762 14.3421 5 
21.5672 27.321 12.9198 5 
23.7153 27.9708 14.3421 5 
21.5673 27.321 15.7645 5 
24.5523 27.1336 16.1798 5 
22.9707 25.7455 14.3422 5 
24.5522 27.1335 12.5044 5 
25.7864 25.8993 14.3422 5 
22.9661 0.00776213 17.1762 5 
ITEM: TIMESTEP
97046
ITEM: NUMBER OF ATOMS
18
ITEM: BOX BOUNDS pp pp pp
0.0000000000000000e+00 2.8712000000000000e+01
0.0000000000000000e+00 2.8712000000000000e+01
0.0000000000000000e+00 2.8712000000000000e+01
ITEM: ATOMS x y z c_cna 
22.9661 0.00767932 11.508 5 
19.9916 0.0123797 14.3421 5 
20.1457 2.82794 14.3421 5 
21.38 1.59378 12.5045 5 
24.3649 1.4064 12.9197 5 
22.2168 0.756733 14.3422 5 
21.3801 1.5938 16.1797 5 
24.365 1.40645 15.7645 5 
22.9615 2.98193 14.3421 5 
25.9406 0.00302762 14.3421 5 
21.5672 27.321 12.9198 5 
23.7153 27.9708 14.3421 5 
21.5673 27.321 15.7645 5 
24.5523 27.1336 16.1798 5 
22.9707 25.7455 14.3422 5 
24.5522 27.1335 12.5044 5 
25.7864 25.8993 14.3422 5 
22.9661 0.00776213 17.1762 5 
