ITEM: TIMESTEP
97000
ITEM: NUMBER OF ATOMS
2001
ITEM: BOX BOUNDS pp pp pp
0.0000000000000000e+00 2.8712000000000000e+01
0.0000000000000000e+00 2.8712000000000000e+01
0.0000000000000000e+00 2.8712000000000000e+01
ITEM: ATOMS x y z 
1.48286 1.42384 1.40897 
2.98891 2.9283 2.95033 
0.10533 2.98709 2.86716 
0.0821535 0.00820175 2.92528 
0.108172 2.99458 0.218815 
4.33914 1.43645 1.32817 
7.15125 1.4963 1.35556 
5.83704 2.97443 2.8601 
10.0178 1.4104 1.30529 
8.54229 2.70774 2.85782 
11.4848 2.81676 2.91243 
11.4595 0.072603 2.93775 
11.6404 2.74743 0.0354968 
12.9782 1.31232 1.52888 
15.8502 1.29428 1.39554 
14.4414 2.96868 2.97072 
14.3161 2.82262 0.3258 
18.636 1.47531 1.42734 
17.3709 3.00776 2.94264 
19.9863 3.07092 2.85596 
20.1113 0.0380364 2.81929 
19.8591 2.96764 0.00466137 
16.9741 2.86872 0.085863 
17.2391 0.116747 0.0185133 
22.6149 2.9546 2.87792 
21.3151 1.52883 1.29376 
24.1695 1.58647 1.40319 
22.8466 2.87257 0.0119169 
27.3487 1.33711 1.4339 
25.8313 2.94499 2.93366 
25.7045 0.0983284 2.57544 
25.7267 2.95058 0.218015 
1.55426 4.4298 1.54342 
1.44219 7.19746 1.43207 
1.29811 7.39564 4.09516 
2.79761 5.77679 2.92558 
4.22045 4.27569 1.41737 
4.25265 7.10275 1.3477 
7.26222 4.43683 1.2274 
7.17915 7.13429 1.63037 
5.78378 5.76202 2.80759 
5.65469 5.81504 0.0327148 
10.0086 4.1928 1.41307 
9.79838 7.04909 1.42299 
8.52774 5.65063 2.93809 
11.2706 5.5466 2.95586 
11.3021 5.58793 0.167551 
12.7099 4.34162 1.54266 
15.6271 4.51025 1.48587 
12.8651 7.03449 1.41366 
15.841 7.19476 1.54859 
14.3083 5.63265 2.93084 
18.5774 4.42048 1.5178 
18.5123 7.26892 1.36989 
17.3383 5.77381 2.93413 
20.1033 6.0477 2.9195 
21.4459 4.50752 1.4399 
21.6046 7.19309 1.47378 
22.934 6.01588 3.00312 
24.4059 7.15713 1.40334 
24.1868 4.33009 1.68804 
22.8665 5.8767 0.174233 
28.703 5.93361 0.0117957 
28.6272 5.84829 2.77125 
27.1944 4.26867 1.69601 
27.1849 7.24666 1.49289 
25.4787 5.89561 3.00722 
25.888 5.77024 0.167745 
1.57957 10.1207 1.35412 
2.85491 8.80943 2.87544 
2.80791 11.5814 2.83474 
0.0998691 8.96865 2.76144 
2.93432 8.70924 0.0570434 
0.156013 8.59359 0.00431811 
4.2859 9.97714 1.38366 
7.13296 10.1779 1.36366 
5.77028 8.55731 2.8565 
5.65837 11.536 2.70701 
11.3952 8.52667 0.050215 
10.1527 10.06 1.51452 
8.54951 8.74614 2.72164 
10.2825 9.94415 4.10122 
11.3926 8.43488 2.73175 
8.56779 11.5989 2.71015 
11.4989 11.5581 2.7917 
11.3568 11.4574 0.191033 
12.8847 9.95988 1.46932 
15.7903 9.98862 1.32275 
14.2846 8.60635 3.00359 
14.2552 11.3979 2.65675 
14.2632 11.4345 0.0986895 
14.2904 8.56296 0.0138938 
18.7419 10.0455 1.4893 
17.3219 8.62462 2.9558 
20.0306 8.67952 2.95893 
17.3651 11.4326 2.84539 
20.2456 11.4593 2.8467 
17.4074 11.5683 0.0403609 
21.5797 10.0686 1.30255 
22.7835 8.82684 2.9121 
23.0126 11.7006 2.83328 
24.3439 10.0143 1.37768 
23.0203 8.62789 0.0101334 
28.4664 11.3818 2.74105 
27.1972 10.0199 1.45831 
25.4515 8.7936 2.86102 
25.7415 11.5961 2.61422 
1.41776 13.1606 1.29928 
1.41822 15.7669 1.37637 
2.85499 14.3738 2.81132 
4.27305 15.8273 1.39208 
4.37153 12.8932 1.35671 
7.07556 12.8494 1.15739 
7.11562 15.7701 1.46236 
7.15547 12.794 4.05042 
5.74405 14.3226 2.79644 
9.99595 12.9885 1.38426 
10.1725 15.8179 1.5053 
8.41224 14.4313 2.86121 
11.6057 14.3721 2.86458 
8.751 14.4271 0.0686864 
14.3539 14.3729 0.108492 
12.8031 13.0191 1.27119 
15.7298 12.7962 1.40723 
13.0093 15.7385 1.41578 
15.6456 15.7912 1.5086 
14.3175 14.3183 2.91676 
18.7454 12.8466 1.35449 
18.6303 15.6921 1.32953 
17.1938 14.3824 2.8574 
20.1211 14.3924 3.01293 
17.3339 14.264 0.00418655 
21.5348 13.0044 1.33299 
21.5385 15.7477 1.49105 
22.9018 14.2927 2.79031 
24.4463 15.5699 1.42195 
24.3772 12.9435 1.44815 
28.6252 14.2953 2.88988 
27.225 12.9282 1.2656 
27.3294 15.7604 1.3766 
25.7842 14.2535 2.76009 
1.33384 18.6533 1.68864 
2.86503 17.1094 2.99082 
2.87399 20.0371 2.88877 
0.0508146 19.9833 0.202288 
2.83158 20.0629 0.104651 
4.24417 18.5522 1.35516 
7.08427 18.4452 1.48011 
5.47978 17.2944 2.88487 
5.63269 20.1372 2.83691 
10.0088 18.4481 1.46963 
8.59141 17.0336 2.91634 
9.85551 18.5311 4.09892 
11.5511 17.2534 3.09008 
8.43678 20.0023 2.81172 
11.6308 20.0541 2.80554 
8.66482 19.9018 0.0297593 
11.4913 17.3095 0.0546343 
11.5971 19.8859 0.103594 
12.9893 18.4631 1.65788 
15.7596 18.5854 1.60272 
14.5338 17.1472 3.18721 
14.4858 19.9923 3.01659 
14.4906 17.1651 0.0919868 
14.4569 20.0465 0.209951 
18.6261 18.7413 1.44083 
17.2581 17.2095 2.75975 
20.0327 17.1493 3.03723 
17.1742 20.2156 2.90086 
20.1935 20.2732 2.87331 
21.3363 18.568 1.55992 
24.1777 18.5663 1.57188 
22.7667 17.2711 3.00241 
22.8165 20.004 2.92159 
28.5386 17.1715 2.91059 
28.6839 20.2078 3.0307 
27.2203 18.5804 1.6654 
25.7311 17.292 3.10997 
25.5787 20.1801 2.81071 
25.9207 17.3238 0.0648836 
25.883 19.9801 0.151063 
1.35904 21.3914 1.45826 
2.88595 22.9291 2.89142 
1.4476 24.497 1.39262 
0.0500608 22.9807 2.795 
4.08772 24.3206 1.38829 
4.25457 21.473 1.44927 
7.12079 21.3305 1.38905 
5.62867 22.8918 2.86119 
7.18938 24.2113 1.2853 
9.97698 21.4198 1.51625 
8.43545 22.8314 2.82211 
11.5506 22.7579 2.87414 
10.1326 24.2915 4.09975 
10.2001 24.2556 1.45582 
11.6719 22.775 0.0104203 
12.9659 21.4391 1.48446 
15.7834 21.5351 1.51991 
14.3417 22.8562 2.79615 
15.8102 24.4472 1.42401 
12.8421 24.1579 1.37414 
14.4877 22.9436 0.0288443 
18.6059 21.6009 1.3398 
17.2345 22.9599 3.06103 
20.0249 22.8109 2.93709 
18.8232 24.3009 1.53119 
21.5217 21.4905 1.21159 
24.2203 21.4425 1.43735 
22.6977 22.9703 2.86533 
21.4945 24.2812 1.35342 
24.2955 24.2953 1.28114 
28.6221 22.9782 0.181196 
27.2237 21.5245 1.43362 
25.7093 22.9681 2.83898 
27.3034 24.415 1.41507 
25.854 22.9812 0.00936477 
3.00606 28.6901 0.053564 
2.91377 28.7109 2.84535 
1.37722 27.3547 1.35479 
2.78913 26.0689 2.77528 
2.92873 26.0381 0.00774163 
5.70219 28.6525 2.78862 
4.35614 27.391 1.35219 
7.18399 27.4604 1.46487 
5.77537 25.867 2.69561 
8.43871 28.6794 2.79774 
8.65189 25.9558 0.0159074 
9.86199 27.363 1.57248 
8.65947 25.6799 2.88835 
11.6101 25.8898 2.78705 
11.475 26.0363 0.187192 
11.4396 28.4557 0.141841 
14.3507 28.6472 2.87239 
14.3076 28.6784 0.066575 
12.9549 27.5264 1.51675 
15.8225 27.3513 1.41918 
14.3812 25.995 2.66299 
17.318 28.5685 2.85326 
18.6761 27.3504 1.41797 
17.1138 25.7766 2.75476 
20.2092 25.7569 2.74871 
22.8119 28.6917 2.5056 
21.3685 27.1937 1.28038 
22.8373 25.7074 2.70025 
24.4932 27.4485 4.06775 
24.3386 27.2178 1.38977 
28.7044 25.8256 0.00484422 
25.7893 28.692 0.0259564 
25.8107 25.7779 0.0161967 
28.6932 25.9086 2.96528 
27.2579 27.2286 1.42666 
25.9213 25.8057 2.62376 
1.52572 1.38935 4.28108 
1.50827 1.42582 7.15948 
2.93288 2.99112 5.61076 
0.00266324 2.87957 5.81859 
4.32113 1.56245 4.29711 
7.10902 1.47485 4.14852 
4.15156 1.40128 7.22892 
7.08168 1.25633 7.11916 
5.80434 2.71578 5.7913 
5.62221 0.0864995 5.47892 
9.91254 1.42381 4.29554 
9.88929 4.0548 4.4308 
10.1522 1.25107 7.40599 
8.31024 2.6268 5.871 
11.3123 2.62995 5.62249 
8.64592 0.0765763 5.63167 
12.8405 1.40495 4.24391 
15.9778 1.3773 4.23747 
13.1616 1.37543 7.00293 
15.94 1.31148 7.11833 
14.5245 2.70836 5.70357 
14.2982 0.12688 5.65809 
18.735 1.47856 4.24588 
18.8006 1.4233 7.0676 
17.2814 2.97736 5.67953 
20.2173 2.92845 5.71367 
20.0599 0.0820951 5.69026 
17.2863 0.076172 5.78269 
21.4684 1.48994 4.37304 
24.3001 1.41304 4.12973 
21.6308 1.56562 7.11789 
22.9473 2.92068 5.64726 
24.5228 1.54021 7.13065 
23.0166 0.0457389 5.52504 
27.3853 1.46105 4.28301 
27.228 1.40708 7.16622 
25.8647 2.97013 5.52943 
25.7851 0.100049 5.71727 
1.40342 4.35155 4.20297 
1.29605 4.24711 7.09294 
1.44021 7.11393 7.10442 
2.77642 5.95585 5.57987 
7.09551 4.29629 4.30948 
4.40841 4.4176 4.38785 
4.49311 7.26641 4.20582 
7.22766 7.29584 4.3596 
4.35729 7.38477 7.11385 
7.11788 4.32469 7.11422 
4.16141 4.45634 6.99609 
5.6307 5.79555 5.65928 
7.15544 7.05911 7.02328 
10.1051 7.09261 4.12148 
9.84696 4.18448 7.14597 
8.53554 5.84242 5.6485 
10.0758 7.14437 7.08086 
11.3505 5.56338 5.68273 
13.016 4.10356 4.45298 
15.956 4.53742 4.3021 
12.8928 7.08922 4.16383 
15.8309 7.15452 4.26518 
12.8294 4.33166 7.20197 
15.9455 4.30996 7.21662 
12.7435 7.18136 7.11935 
14.2945 5.6843 5.73262 
15.7202 7.27018 7.25678 
18.771 4.40197 4.47317 
18.4638 7.19461 4.34379 
18.8082 4.35163 7.27385 
17.2679 5.78782 5.81172 
18.6329 7.41183 7.12983 
20.0231 5.77988 5.81846 
21.4346 4.35545 4.27792 
21.2855 7.27947 4.55596 
24.2854 7.38794 4.31823 
24.1838 4.27239 4.33168 
21.6392 4.37761 7.19197 
21.5715 7.35193 7.22499 
23.0869 5.752 5.827 
24.4071 7.24937 7.21636 
24.3893 4.39144 7.08482 
27.23 4.30599 4.27771 
27.2688 7.28808 4.21046 
28.696 5.88652 5.54486 
27.1912 4.32006 7.21577 
25.8198 5.87933 5.63023 
27.2792 7.10397 7.13016 
1.47575 10.0721 4.52851 
1.39952 10.1625 7.13578 
2.8647 8.70223 5.67055 
2.95057 11.4186 5.67426 
4.32892 10.0295 4.29074 
7.1773 10.1571 4.27601 
4.3101 10.0067 7.1888 
5.9013 8.71158 5.76395 
7.37799 9.97718 7.13964 
5.7088 11.3786 5.54415 
8.68073 8.64105 5.62034 
10.2908 9.98701 7.06838 
11.4831 8.45542 5.65667 
8.85767 11.347 5.44302 
11.6928 11.5472 5.77796 
12.9382 10.0344 4.21546 
15.7812 10.1455 4.15602 
13.1926 10.1002 7.17937 
14.3685 8.6608 5.64771 
15.8316 10.2729 7.30936 
14.5286 11.5282 5.75796 
18.547 10.276 4.38034 
19.8818 8.84717 5.91817 
17.2182 8.71123 5.9344 
18.5947 10.1568 7.37315 
17.2035 11.4809 5.93199 
20.0643 11.6175 5.74572 
21.3016 10.1876 4.49411 
24.0898 10.1898 4.31649 
21.4405 10.0457 7.21835 
22.7734 8.54969 5.72996 
22.7946 11.5724 5.94436 
24.2288 10.0722 7.20925 
27.1004 10.0134 4.33602 
28.6749 8.54059 5.63846 
28.5829 11.5162 5.54495 
25.7924 8.64858 5.80382 
27.2423 9.94635 7.18733 
25.7786 11.5519 5.77019 
1.35603 13.015 4.11454 
1.24407 15.6115 4.39115 
1.39192 13.0129 7.11553 
1.22574 15.7698 7.18862 
2.7141 14.2903 5.52 
4.14118 12.9565 4.16099 
4.34655 15.6706 4.24153 
7.09789 15.7464 4.19491 
4.48549 15.9023 7.05324 
4.14517 12.8838 7.04794 
7.41551 12.6835 6.96277 
5.7375 14.2336 5.59567 
7.29687 15.6814 7.17104 
10.1373 12.8487 4.13196 
10.0688 15.6532 4.32013 
10.0636 12.7569 6.94026 
8.47491 14.1966 5.5932 
10.0468 15.6848 6.95945 
11.4917 14.3093 5.67163 
13.0034 12.9105 4.21937 
16.1079 12.87 4.37168 
13.0284 15.7471 4.36924 
15.9984 15.79 4.32507 
12.9675 13.0437 7.15301 
15.8664 12.9708 7.2608 
13.0079 15.7146 7.01062 
14.6161 14.1911 5.66101 
15.9339 15.7654 7.11286 
18.6883 12.8271 4.32979 
18.518 15.8602 4.28516 
18.6404 12.9211 7.36504 
17.3667 14.3323 5.89196 
18.7137 15.8587 7.2491 
20.1494 14.2763 5.7034 
21.5375 12.9655 4.37397 
21.4704 15.8634 4.49879 
24.4002 12.7873 4.32222 
24.1898 15.8081 4.2689 
21.4551 12.9435 7.20245 
21.4822 15.8876 7.20685 
22.9203 14.3909 5.74145 
24.4447 12.8434 7.18792 
24.2246 15.7992 7.16579 
26.9475 12.9499 4.23722 
26.9476 15.672 4.26151 
28.3887 14.2774 5.74881 
26.9943 12.939 7.20049 
25.6737 14.3477 5.69614 
27.1723 15.5626 7.27149 
1.37507 18.5825 4.42341 
1.32796 18.5918 7.14882 
2.93601 17.2564 5.67092 
2.93873 19.8962 5.76213 
4.29634 18.6449 4.2487 
7.19762 18.6916 4.30082 
4.32127 18.5263 7.07375 
5.87863 17.1124 5.75468 
7.15816 18.5275 7.16425 
5.75201 20.0802 5.74567 
8.55132 17.0879 5.63819 
9.91082 18.549 7.05461 
11.4162 17.2622 5.73486 
8.47111 20.2099 5.90011 
11.5014 20.0044 5.74811 
13.0373 18.6384 4.50395 
15.8239 18.6766 4.48245 
12.8431 18.4854 7.30588 
14.4496 17.1871 5.92553 
15.795 18.6728 7.3099 
14.4796 20.069 5.80376 
18.6681 18.8118 4.28748 
17.1751 17.3436 5.74939 
18.6775 18.5178 7.409 
19.9219 17.3207 5.79737 
17.0209 20.0495 5.83969 
20.0367 20.0765 5.81211 
21.208 18.5938 4.4808 
24.3615 18.6808 4.43286 
21.4512 18.5553 7.18578 
22.9411 17.2606 5.82118 
22.9291 20.0151 5.69686 
24.4454 18.6842 7.14246 
27.0919 18.8377 4.25961 
28.6361 20.1034 5.73741 
28.4759 17.0786 5.77813 
25.6197 17.2318 5.74032 
27.302 18.6211 7.10335 
25.7942 20.3087 5.66208 
1.34934 21.5835 4.39687 
1.37124 24.5834 4.15415 
1.35981 21.3962 7.09595 
2.78851 22.9074 5.7192 
1.41709 24.3445 7.16856 
0.00366424 23.1981 5.71591 
4.21395 21.4036 4.19514 
4.37037 24.4969 4.31513 
7.05972 21.4376 4.29384 
7.23356 24.5153 4.27027 
4.25023 24.3299 7.11779 
4.33786 21.4786 7.15226 
7.09281 21.615 7.22901 
5.78933 23.0306 5.65818 
7.11298 24.4684 7.23155 
9.99742 21.6491 4.40541 
10.0978 21.5249 7.19228 
8.5894 22.9807 5.74034 
11.594 22.938 5.67033 
10.1272 24.475 7.14228 
13.0699 21.4463 4.32049 
15.8772 21.5576 4.38466 
12.8797 24.4346 4.2339 
15.7204 24.5044 4.25447 
12.9411 21.324 7.06576 
15.7706 21.454 7.22915 
14.2725 23.0755 5.767 
15.769 24.5196 7.02792 
13.0864 24.375 7.22051 
18.6671 21.2987 4.38983 
18.797 24.5294 4.43302 
18.563 21.4931 7.15117 
17.1964 23.0326 5.75182 
20.083 23.1495 5.79613 
18.5942 24.4515 7.15687 
21.386 21.5336 4.34836 
24.2581 21.4367 4.31123 
24.2625 24.4278 4.11657 
21.4519 24.3975 4.28573 
21.4235 21.5461 7.02513 
22.9881 23.0421 5.65526 
24.3558 21.4603 7.1693 
21.6679 24.5673 7.21705 
24.3156 24.417 7.17128 
27.0986 21.5378 4.24675 
27.22 24.3391 4.1393 
27.279 21.584 6.96929 
25.7254 23.1051 5.55683 
27.1026 24.2559 7.09542 
1.52027 27.3032 4.35468 
2.78621 28.4921 5.90286 
1.3743 27.1099 7.17714 
2.75599 25.7673 5.86044 
0.0197093 28.5349 5.85548 
4.32655 27.32 4.2572 
6.98495 27.4094 4.44506 
4.34322 27.3541 7.09606 
5.6689 25.8491 5.73586 
7.10811 27.3526 7.04981 
9.89804 27.1999 4.3556 
11.5203 28.6756 5.95926 
8.62473 25.905 5.79554 
9.93137 27.4229 7.22025 
11.4564 25.8637 5.63032 
12.9613 27.3786 4.35225 
15.9153 27.3407 4.32786 
13.0467 27.1858 7.14726 
14.3369 25.9444 5.68553 
15.7794 27.3695 7.17348 
18.7908 27.3826 4.1768 
17.3554 25.9128 5.64176 
18.7863 27.3498 7.18632 
20.4214 26.0711 5.54627 
21.6696 27.5464 4.13337 
21.7942 27.3471 7.06743 
23.0294 25.9917 5.51752 
24.4083 27.4515 6.94863 
27.2337 27.3382 4.13728 
28.6396 25.557 5.8045 
25.8304 25.7148 5.57017 
27.2641 27.2037 6.98841 
2.81479 2.9363 8.61815 
2.7389 0.0215937 8.5825 
1.41442 1.41234 10.1451 
2.72387 2.8924 11.6039 
4.07929 1.48874 10.07 
5.53193 2.84023 8.64694 
7.08247 1.36734 9.74911 
5.77391 2.75937 11.4955 
4.29116 4.07707 10.175 
8.51203 2.82006 8.55236 
11.4505 2.79414 8.52787 
11.7686 0.0457233 8.60659 
8.53642 0.166542 11.4707 
9.95961 1.24822 10.08 
8.56746 2.76414 11.554 
11.4912 2.86161 11.4844 
11.5683 0.0548217 11.5113 
14.3801 2.90328 8.51943 
14.2636 0.0423699 11.6838 
13.1584 1.34001 9.97616 
15.8907 1.22597 10.0721 
14.4714 2.9298 11.4224 
17.2914 2.87172 8.45151 
20.1634 2.9312 8.65321 
20.4109 0.0931946 8.74067 
18.6748 1.39281 9.93852 
17.2812 2.74632 11.5046 
19.9057 2.87014 11.4072 
23.1047 2.89257 8.72889 
22.9881 0.166985 8.45468 
23.0446 0.0510897 11.5392 
21.7566 1.4559 9.96946 
22.9982 2.96823 11.4002 
24.5312 1.56098 10.1787 
28.4979 2.8164 8.57869 
25.8054 3.01809 8.53662 
28.6506 2.78085 11.4313 
27.3165 1.19142 10.023 
25.9823 2.98678 11.4815 
2.90274 5.57096 8.51658 
0.0353349 5.74811 8.64112 
1.43565 4.38957 10.0843 
1.4354 7.06134 10.0202 
2.8958 5.64821 11.4257 
0.0190793 5.95696 11.5106 
5.58549 5.7146 8.60487 
4.25117 7.0852 10.0198 
7.01745 4.23713 10.0179 
7.24964 7.24593 10.0504 
5.90356 5.59027 11.4575 
8.54019 5.81877 8.53518 
11.4035 5.63147 8.63413 
10.0407 4.24927 10.0654 
9.89541 7.23591 9.8934 
8.4748 5.69519 11.3536 
11.452 5.69684 11.5056 
14.4208 5.89348 8.64136 
12.9393 4.21892 10.0632 
15.7493 4.22504 9.94909 
12.8955 7.01103 10.0303 
15.8523 7.23948 10.077 
14.1883 5.72889 11.5857 
17.3535 5.81484 8.53268 
20.0675 5.75583 8.57465 
18.453 4.2686 9.94552 
18.4864 7.02623 10.4681 
17.0923 5.64926 11.5102 
19.9917 5.7751 11.6221 
23.0929 5.76875 8.71824 
21.6243 4.34099 10.1775 
21.6058 7.10739 9.96271 
23.0134 5.81247 11.6044 
24.5047 7.26092 10.1894 
24.5108 4.35645 10.0741 
25.7684 5.77068 8.68043 
27.3038 4.43291 10.0853 
27.146 7.25789 9.87584 
25.9749 5.96411 11.6262 
2.74399 8.73835 8.49845 
2.8167 11.4017 8.46704 
0.0256984 11.3408 8.51744 
0.118267 8.46998 8.662 
1.51303 9.98544 10.1529 
2.96786 8.52234 11.5768 
2.79481 11.5644 11.4943 
0.0799427 11.6617 11.5844 
0.00602435 8.58618 11.5319 
5.74125 8.47684 8.56327 
5.82729 11.3024 8.35297 
4.24437 10.1187 10.0472 
7.2899 10.196 10.0288 
5.87317 8.40503 11.3633 
5.59474 11.5584 11.4962 
8.69572 8.60579 8.46252 
11.3207 8.57932 8.66898 
8.64795 11.4528 8.55978 
11.4723 11.4196 8.52095 
11.6333 8.51189 11.3143 
9.94052 10.1757 10.2308 
8.65248 8.62483 11.5799 
8.41158 11.6486 11.493 
11.5601 11.5536 11.574 
14.391 8.64193 8.74421 
14.3079 11.5393 8.67467 
12.7988 10.2321 10.0225 
15.8994 10.1005 10.1293 
14.3374 8.69438 11.6063 
14.288 11.3962 11.3204 
17.1911 8.60073 8.72957 
19.9318 8.40412 8.67066 
17.3073 11.6632 8.74749 
20.2417 11.4379 8.66222 
18.6555 10.0021 10.2583 
17.1261 8.56284 11.6002 
19.9468 8.54713 11.457 
17.1991 11.7435 11.4522 
20.1525 11.3331 11.3935 
23.0125 8.56038 8.64024 
22.8591 11.2625 8.61394 
21.5726 9.83648 9.85946 
23.0048 8.63108 11.4198 
22.9526 11.5269 11.3859 
24.4321 10.2982 10.0928 
25.8484 8.54044 8.58658 
25.9513 11.6028 8.76833 
27.3397 10.2144 10.053 
25.9364 8.72615 11.4778 
25.743 11.5877 11.5312 
2.85136 14.4475 8.60782 
1.63617 12.9947 10.1168 
1.30641 15.7341 10.0731 
2.92657 14.3648 11.432 
0.0823737 14.3474 11.488 
5.79212 14.1959 8.43481 
4.29333 12.9025 9.71248 
4.24015 15.7061 9.95956 
7.04701 12.7838 9.9 
7.10148 15.9354 9.98347 
5.85013 14.3873 11.1732 
8.58096 14.3412 8.65573 
11.5407 14.4499 8.49623 
10.0205 12.8726 9.95378 
10.0774 15.6841 10.0286 
8.35642 14.3542 11.5913 
11.2692 14.3249 11.5075 
14.427 14.3135 8.63567 
12.7849 12.939 9.91055 
15.7886 12.9229 10.1034 
12.7973 15.9087 10.0083 
15.9495 15.9107 10.1028 
14.2364 14.2773 11.2418 
17.2786 14.547 8.51248 
20.2137 14.3943 8.80464 
18.8786 12.9466 10.2326 
18.7584 15.7784 10.2606 
17.1985 14.3837 11.345 
20.0414 14.4883 11.6037 
22.9186 14.153 8.5377 
21.5573 12.8281 10.0169 
21.4922 15.852 10.1079 
22.9787 14.2214 11.4065 
24.3284 15.9175 10.0783 
24.4326 12.8946 9.92669 
28.704 14.2921 8.53207 
25.7306 14.4406 8.64294 
27.2258 13.0454 10.2031 
27.0495 15.8959 10.166 
25.6816 14.3091 11.5247 
2.84697 17.2464 8.47425 
2.96121 20.1531 8.49602 
1.49526 18.7042 10.0871 
2.75405 17.144 11.4468 
2.82614 20.021 11.3821 
0.00931223 20.3121 11.4022 
5.58827 17.1975 8.5716 
5.79146 20.1378 8.58549 
4.345 18.6843 10.0064 
7.33243 18.5874 9.84113 
5.71313 17.2987 11.4329 
5.75105 20.0938 11.5046 
8.68615 16.9928 8.54033 
11.481 17.1295 8.58348 
8.55515 20.0945 8.66581 
11.3544 19.9306 8.64353 
10.0549 18.6749 10.1288 
8.59593 17.1547 11.5098 
11.4307 17.2216 11.4809 
8.66799 20.2101 11.4871 
11.4889 19.9521 11.5298 
14.377 17.177 8.70448 
14.2489 19.9397 8.74453 
12.7434 18.658 10.1214 
15.8144 18.5025 10.13 
14.2849 17.2673 11.4633 
14.5787 19.9965 11.4842 
17.2581 17.0618 8.6678 
20.0957 17.1653 8.72206 
17.1454 20.0663 8.66932 
20.1485 20.0801 8.41921 
18.7064 18.578 10.0531 
17.4711 17.194 11.6458 
20.1246 17.3453 11.5669 
17.4856 20.0611 11.4379 
20.1997 20.1802 11.0865 
22.951 17.1078 8.4737 
22.8631 20.013 8.69889 
21.3841 18.5677 9.93335 
22.921 17.17 11.6286 
22.8804 20.0525 11.5522 
24.3699 18.733 9.91394 
28.5991 20.0448 8.63058 
28.6366 17.0635 8.44902 
25.6765 17.2124 8.55664 
25.8041 20.0058 8.50892 
28.6879 17.1694 11.5274 
27.2149 18.6054 10.0576 
25.7906 17.2296 11.5674 
25.961 19.8414 11.5494 
2.87227 22.9925 8.65062 
1.41053 24.321 9.93769 
1.55534 21.418 9.88462 
2.938 22.7731 11.4431 
5.82163 23.1591 8.46402 
4.24819 24.5168 10.228 
4.52297 21.3916 9.88411 
7.16586 24.4597 9.95991 
7.2531 21.5832 9.97599 
5.84591 23.1063 11.4239 
8.58651 22.8815 8.67601 
11.4148 22.7489 8.54981 
8.58943 22.752 11.4201 
10.1602 21.4556 10.0057 
10.0764 24.4314 10.0859 
11.5842 22.9293 11.5106 
14.4414 22.7139 8.64901 
12.9473 21.3656 10.121 
15.9072 21.4805 9.92788 
14.5344 22.9321 11.6327 
12.8633 24.4493 9.84376 
15.6687 24.4414 10.0027 
17.2486 23.1641 8.57213 
20.139 22.9981 8.53938 
20.3011 22.9136 11.4281 
17.3159 22.7442 11.5288 
18.669 24.464 10.0121 
18.6639 21.6246 9.94481 
23.0012 22.8738 8.48278 
22.9785 23.0438 11.3146 
21.447 24.4381 9.99106 
24.3663 21.5528 9.91062 
24.5542 24.3978 9.80845 
21.5433 21.6481 10.0157 
28.609 22.9536 8.63126 
25.8677 22.8764 8.51736 
27.1813 21.5286 9.99966 
25.9474 23.1451 11.4635 
27.1256 24.2276 9.94563 
28.7108 23.0021 11.2427 
0.140988 28.6824 8.59093 
2.8507 25.8681 8.53086 
2.73756 25.8905 11.5599 
2.89098 28.6256 11.6019 
0.0894571 25.6182 11.2997 
1.25373 27.2444 10.1238 
5.58387 28.6047 8.52678 
5.54183 25.7376 8.57713 
7.23267 27.0969 10.0071 
5.80988 25.9109 11.4367 
4.13141 27.2882 9.97026 
5.72762 28.568 11.2401 
8.51596 28.5509 8.58495 
8.75332 25.8003 8.57414 
11.4559 25.8953 8.58909 
11.6468 25.8916 11.5432 
8.60608 25.8936 11.3664 
9.91903 27.1649 10.0807 
14.4523 28.5876 8.56163 
14.488 25.9145 8.42116 
13.0107 27.2024 10.0939 
14.371 25.8373 11.55 
15.6887 27.3569 10.1787 
17.3421 28.6268 8.68243 
17.2857 25.8344 8.35463 
20.1975 25.9563 8.7573 
18.4739 27.145 9.90829 
20.2909 25.777 11.4488 
17.281 25.766 11.556 
20.071 28.6031 11.4435 
17.3781 28.6706 11.6297 
23.0023 25.8753 8.5212 
21.7393 27.4242 10.1484 
23.0432 25.7625 11.3861 
24.3716 27.5336 10.0654 
28.5008 25.8124 8.43968 
25.8297 28.6818 8.59585 
25.7254 25.9191 8.45026 
27.2569 27.2295 9.92666 
25.8676 25.7847 11.172 
26.045 28.7054 11.5197 
28.6441 28.4704 11.527 
1.48149 1.3009 12.9291 
0.214022 2.84443 14.2147 
2.79242 2.86063 14.2228 
1.50817 1.46401 15.6528 
4.20612 1.49993 12.8924 
7.0325 1.31595 12.989 
4.38808 1.52461 15.5781 
7.0214 1.77394 15.5377 
5.48529 2.98671 14.3861 
8.39056 0.0752902 14.35 
9.95633 1.47661 12.987 
8.47047 2.94814 14.2798 
11.3949 2.91918 14.303 
11.4317 0.100024 14.1368 
10.0284 1.37463 15.7474 
13.2842 1.67897 12.8836 
15.9005 1.55151 12.9934 
14.4586 0.0926151 14.3476 
12.9831 1.63172 15.735 
15.7424 1.46399 15.8256 
14.4289 2.85588 14.425 
19.9632 0.14744 14.2988 
18.5327 1.5771 13.0255 
18.5764 1.49476 15.8618 
17.2601 3.03588 14.4153 
20.0616 2.70234 14.4576 
21.3167 1.49906 12.4365 
24.3432 1.61759 12.8552 
21.4793 4.06204 12.7892 
22.1719 0.827712 14.1459 
21.5623 1.65556 16.1839 
24.2001 1.36737 15.7656 
23.0024 2.96826 14.4773 
27.4398 1.25957 12.932 
25.7046 2.87048 14.3116 
27.3874 1.60806 15.7896 
25.9021 0.111753 14.4053 
1.33101 4.34326 12.6807 
1.47051 7.25163 12.9332 
2.70844 5.95376 14.2153 
1.51147 4.37536 15.722 
1.39193 7.29983 15.8943 
0.0366151 5.80135 14.3642 
4.36046 4.4875 12.9504 
7.19553 4.35455 13.0109 
4.44498 7.20065 12.9382 
7.33353 7.05329 12.8499 
5.95524 5.89894 14.3439 
4.36314 4.33515 15.834 
4.51403 7.09725 15.6912 
7.21525 4.43054 15.6853 
7.18211 7.40532 15.9268 
9.97083 4.29383 12.8701 
10.1294 7.18193 12.7415 
11.4756 5.77791 14.2814 
10.105 4.42185 15.587 
10.0823 7.24526 15.7867 
8.62668 5.87734 14.4486 
12.8463 4.36841 12.9414 
15.8542 4.39877 13.0217 
12.9126 7.31449 12.8291 
15.6484 7.22084 12.7768 
15.6808 4.45471 15.885 
12.8679 4.37795 15.6908 
12.8563 7.23631 15.7673 
15.7438 7.38857 15.7119 
14.3227 5.78964 14.4517 
18.4985 4.38531 13.0256 
18.6985 7.21449 12.986 
20.0731 5.78046 14.172 
18.6705 4.22301 15.8872 
18.7915 7.05184 15.614 
17.2454 5.89228 14.3611 
24.5273 4.34553 12.9131 
21.6562 7.2858 13.0269 
24.4301 7.33541 12.7736 
23.1356 5.65034 14.194 
21.478 4.34239 15.7765 
21.5161 6.98427 15.5311 
24.529 7.17224 15.8331 
24.507 4.2541 15.8063 
27.3072 4.29651 13.067 
27.3728 7.36076 12.8552 
25.9022 5.88274 14.0251 
27.2458 4.36529 15.6197 
27.2443 7.16379 15.6778 
1.57207 10.1655 12.9846 
3.06961 8.63102 14.2957 
1.45404 9.97807 15.8921 
2.86389 11.5757 14.5641 
0.0613911 11.4656 14.4297 
0.160628 8.71796 14.5291 
4.23309 10.1581 12.8286 
7.1364 10.1239 12.8315 
5.66691 8.74254 14.3536 
5.57225 11.6054 14.2935 
4.34965 10.1112 15.7488 
7.26289 10.1901 15.8329 
10.0738 10.1986 12.8682 
11.374 8.7002 14.25 
8.65664 8.43858 14.2255 
8.60255 11.3928 14.3636 
9.99178 10.0076 15.7149 
11.5809 11.3341 14.4674 
12.8849 10.1028 12.9584 
15.7648 10.2353 12.8313 
14.3824 8.64669 14.2498 
12.9322 10.1651 15.791 
15.898 10.2757 15.7238 
14.32 11.6613 14.4215 
20.0261 11.4719 14.3221 
17.2094 8.65526 14.284 
20.0836 8.62926 14.1139 
18.5724 10.1757 12.905 
18.6494 10.1165 15.7654 
17.2521 11.679 14.4112 
21.637 10.0265 12.9143 
24.5205 10.1024 12.948 
21.5468 10.0203 15.7161 
24.2387 10.0919 15.8372 
23.0651 8.54525 14.4337 
23.0004 11.4304 14.4044 
27.3601 10.0471 12.9898 
25.9911 11.5488 14.2824 
27.3593 9.99964 16.0044 
25.8855 8.7483 14.3662 
1.50606 13.0558 13.08 
1.54185 15.8793 12.8558 
3.05426 14.4884 14.2758 
1.59984 12.8688 15.9124 
1.58404 15.8079 15.7046 
0.106852 14.4649 14.4553 
4.40802 12.9825 12.7451 
4.5086 15.7538 12.672 
7.00857 13.179 13.0162 
7.15476 15.9452 12.9009 
4.22744 15.9099 15.7993 
4.29945 12.9089 15.8164 
7.11088 12.7494 15.6962 
7.20392 15.7693 15.7538 
5.58634 14.4103 14.3572 
9.92379 12.8772 12.8262 
9.88556 15.7911 13.0347 
9.99428 12.8697 15.935 
9.99969 15.6213 15.7631 
8.70442 14.294 14.3875 
11.4072 14.3594 14.4914 
12.9549 12.7782 12.8436 
15.7035 13.0082 12.9439 
12.9363 15.6896 12.7181 
15.7574 15.5897 12.9506 
14.191 14.3066 14.3062 
12.8562 12.8973 15.7108 
15.8722 13.0621 15.7629 
12.8727 15.8136 15.8783 
15.9452 15.6388 15.6929 
17.327 14.0645 14.2964 
18.7721 12.9276 12.8517 
18.7116 15.8259 13.0761 
19.9875 14.4565 14.3146 
18.7529 13.1231 15.8398 
18.653 15.6439 15.815 
22.9542 14.2393 14.3247 
21.5518 12.853 12.8421 
21.5011 15.7197 13.0102 
24.2253 15.7087 12.9108 
24.3008 12.957 12.9447 
21.4241 13.0524 15.7116 
21.5543 15.9344 15.8076 
24.4639 15.7566 15.6923 
24.4234 12.9056 16.0298 
27.3284 13.0173 13.0716 
27.2371 15.8726 12.9866 
25.8072 14.2816 14.2071 
27.3722 12.8962 15.6734 
27.3771 15.7714 15.5957 
3.09218 17.3541 14.3197 
1.34562 18.8204 12.9729 
1.45961 18.8803 15.7391 
0.187825 17.3251 14.5485 
2.72199 20.3609 14.4589 
4.13185 18.657 12.7576 
7.20188 18.6712 12.9642 
5.77267 19.9936 14.4524 
5.84867 17.3227 14.4458 
4.48811 18.8477 15.832 
7.32822 18.6611 15.8861 
10.1687 18.652 12.9563 
11.4427 17.1001 14.3533 
8.53715 17.3221 14.4573 
8.74104 20.0899 14.3678 
10.0042 18.7348 15.786 
11.5459 20.2155 14.5449 
13.033 18.481 13.0806 
15.8907 18.5498 12.8973 
14.4799 17.1327 14.348 
14.3441 20.1518 14.3909 
12.9439 18.5164 15.9542 
15.785 18.7168 15.9617 
18.887 18.6505 13.0237 
17.2776 17.1275 14.3541 
17.2055 20.148 14.2995 
20.0774 20.1741 14.4338 
18.5049 18.7351 15.8052 
20.1258 17.2456 14.5035 
22.8189 20.2486 14.3087 
21.4319 18.6741 13.1252 
24.4514 18.7005 13.1767 
21.4631 18.7825 15.8093 
24.4441 18.6499 15.7945 
22.8698 17.4384 14.4104 
26.0345 20.0972 14.1758 
27.4881 18.6721 12.8984 
25.8572 17.2482 14.1967 
27.1968 18.8251 15.6028 
28.6949 20.3348 14.3762 
0.135694 22.9466 14.2131 
3.02149 23.0291 14.2111 
1.49562 21.4448 12.939 
1.28168 24.2729 12.923 
1.61476 21.7408 15.8643 
1.4248 24.218 15.7305 
4.27036 21.4941 12.8944 
7.29202 24.3277 13.038 
4.33253 24.5151 12.7508 
7.31373 21.399 13.0621 
5.78578 23.0621 14.1765 
4.43427 21.5469 15.7591 
7.25317 21.5457 15.7173 
4.4053 24.288 15.7645 
7.18976 24.465 15.8675 
10.1529 21.7178 12.9085 
10.1189 24.276 12.67 
10.1604 21.4348 15.7967 
9.98925 24.5203 15.7022 
11.5113 22.8731 14.3782 
8.64161 22.8331 14.4844 
15.8137 21.4893 13.0909 
12.8553 21.429 12.9704 
15.8463 24.2784 13.1266 
12.8358 24.3183 12.9538 
14.3821 22.8202 14.3362 
13.1979 21.4962 16.0248 
15.8198 21.4853 15.8917 
13.0003 24.3175 15.8969 
15.7169 24.5369 15.8656 
18.8858 21.4939 12.9723 
18.7673 24.397 12.9485 
17.3862 22.8957 14.3382 
18.6985 21.4473 15.9598 
18.5994 24.2249 15.8426 
20.1246 23.0085 14.4517 
21.8125 24.3216 12.8053 
21.5514 21.4984 12.7487 
24.3556 21.2934 12.8597 
24.487 24.3336 12.8787 
22.9189 22.9603 14.3203 
21.621 21.5958 15.8845 
24.4276 21.5761 15.5203 
21.8 24.2663 15.7282 
24.5118 24.2719 15.752 
27.286 24.464 12.8895 
27.2298 21.5114 12.7232 
27.3087 21.5828 15.7357 
27.2006 24.2645 15.7155 
25.6868 22.9705 14.3574 
2.90559 25.6943 14.3484 
1.38551 27.0996 13.1926 
1.54587 27.1113 15.8572 
2.9667 28.6741 14.3669 
0.0460666 28.5446 14.3804 
7.29626 27.2482 12.8769 
4.24786 27.2006 12.8129 
5.83255 28.5491 14.2717 
4.295 27.1275 15.6639 
7.07465 27.3972 15.8744 
5.65306 25.7353 14.3814 
9.86763 27.3775 12.8105 
11.486 25.9128 14.2512 
8.77077 25.7249 14.2371 
10.0342 27.2554 15.8176 
15.833 27.1955 13.0335 
12.9242 27.2828 12.9073 
12.9433 27.439 15.6601 
15.8148 27.2572 15.8259 
14.0539 25.6925 14.4429 
18.7233 27.3041 12.8305 
20.1657 25.7436 14.1939 
17.3835 25.6938 14.3483 
17.3004 28.667 14.387 
18.7695 27.2112 15.7698 
21.6263 27.3592 12.8911 
23.6958 28.1233 14.2044 
21.5501 27.2997 15.7298 
24.5295 27.2292 16.0682 
22.875 25.7918 14.388 
24.6491 27.0567 12.5889 
27.2445 27.2097 12.9366 
28.6661 25.7518 14.3283 
27.2607 27.2629 15.8627 
25.6694 25.8801 14.359 
1.49811 1.34899 18.6169 
2.90168 2.84229 17.1424 
0.0936696 2.82379 17.2006 
0.085999 0.099436 17.1205 
2.93484 0.0831911 17.0765 
2.82505 2.87226 20.1992 
0.140596 2.86067 20.1861 
4.13074 1.36506 18.5779 
6.94832 1.47444 18.5354 
5.66492 2.9347 17.3359 
5.68396 0.0181914 17.1306 
5.62611 2.96073 20.0517 
10.0959 1.54507 18.6516 
8.63896 2.8507 17.1802 
11.402 3.01604 17.2311 
11.4636 0.0762085 17.1249 
8.65726 0.236022 17.2163 
8.68112 2.83306 20.0345 
11.4366 3.00632 20.1178 
8.6857 0.095621 19.9413 
12.7011 1.58692 18.7109 
15.7088 1.49395 18.6883 
14.2393 2.93202 17.3568 
14.4173 0.149017 17.2639 
14.3958 2.89166 19.9878 
14.2217 0.178089 20.1715 
18.583 1.62585 18.8433 
17.3002 2.81536 17.2822 
20.1783 3.01578 17.354 
17.361 0.049641 17.3461 
19.9243 0.215559 17.4211 
16.9061 2.89831 20.0618 
19.9425 2.86592 20.2876 
20.1064 0.0492541 20.0401 
17.1494 0.00385158 20.2572 
21.7454 1.58376 18.6214 
23.1746 3.15233 17.2062 
24.6 1.45272 18.6353 
23.1465 2.85486 20.2164 
22.9906 0.283855 20.1204 
27.4306 1.42445 18.6516 
26.0065 2.69712 17.1853 
26.1063 0.0884711 17.2635 
25.8976 2.91867 19.891 
28.6348 0.0592666 20.0729 
1.49324 4.21435 18.6332 
1.48365 7.17051 18.5327 
3.05272 5.80218 17.0318 
0.0812677 5.6081 17.1723 
2.78852 5.89786 19.9548 
0.114537 5.76445 19.9412 