ITEM: TIMESTEP
98045
ITEM: NUMBER OF ATOMS
2001
ITEM: BOX BOUNDS pp pp pp
0.0000000000000000e+00 2.8712000000000000e+01
0.0000000000000000e+00 2.8712000000000000e+01
0.0000000000000000e+00 2.8712000000000000e+01
ITEM: ATOMS x y z c_cna 
1.43391 1.44377 1.42058 3 
2.86986 2.88011 2.85537 3 
2.87042 0.00791123 2.85496 3 
4.30509 1.44392 1.42075 3 
7.17508 1.44381 1.42111 3 
5.74019 2.87997 2.85609 3 
5.74073 0.0078781 2.8558 3 
10.0444 1.44358 1.42109 3 
8.60953 2.87971 2.85647 3 
11.4788 2.87968 2.85575 3 
11.4793 0.00737916 2.85589 3 
8.60999 0.00762483 2.85641 3 
12.9145 1.44353 1.42071 3 
15.7857 1.44375 1.42058 3 
14.349 2.87994 2.8548 3 
14.3496 0.0073448 2.8551 3 
18.6577 1.444 1.42083 3 
17.2207 2.88034 2.85482 3 
20.0932 2.8804 2.85549 3 
20.0937 0.00798299 2.85572 3 
17.2214 0.00768559 2.85512 3 
22.9657 2.87993 2.85572 3 
21.5298 1.44388 1.42106 3 
24.4018 1.44353 1.42098 3 
22.966 0.00769851 2.856 3 
28.7102 2.87985 2.85516 3 
28.7107 0.00762363 2.85498 3 
27.2739 1.4435 1.42074 3 
25.8379 2.87955 2.85542 3 
25.8383 0.00739587 2.85563 3 
1.43357 4.31564 1.42076 3 
1.43336 7.18701 1.42105 3 
2.86932 5.75171 2.85594 3 
4.30464 4.31582 1.42098 3 
4.30425 7.18716 1.4213 3 
7.17462 4.31576 1.42125 3 
7.17427 7.18732 1.42148 3 
5.73969 5.75165 2.85653 3 
10.044 4.31573 1.42112 3 
10.0437 7.18765 1.42126 3 
8.60913 5.75162 2.85667 3 
11.4784 5.75203 2.85577 3 
12.914 4.31594 1.42065 3 
15.7852 4.31623 1.42045 3 
12.9137 7.18821 1.42072 3 
15.785 7.18858 1.42041 3 
14.3485 5.75275 2.85464 3 
18.6573 4.31628 1.42065 3 
18.6574 7.18836 1.42047 3 
17.2204 5.7532 2.8544 3 
20.0933 5.75281 2.85485 3 
21.5296 4.31594 1.42082 3 
21.5298 7.18786 1.42061 3 
22.9659 5.7522 2.85514 3 
24.4021 7.18742 1.42071 3 
24.4018 4.31555 1.42082 3 
28.7099 5.7515 2.85552 3 
27.2738 4.3154 1.42074 3 
27.274 7.18713 1.42082 3 
25.8382 5.75175 2.85524 3 
1.43342 10.0579 1.42131 3 
2.86888 8.62255 2.85664 3 
2.86893 11.493 2.85703 3 
4.30409 10.0578 1.4216 3 
7.17422 10.0582 1.42169 3 
5.7393 8.6227 2.85703 3 
5.73932 11.4931 2.85741 3 
10.0439 10.059 1.42147 3 
8.60896 8.6231 2.85698 3 
11.4784 8.62397 2.85605 3 
8.60925 11.4938 2.85736 3 
11.479 11.4948 2.85672 3 
12.9141 10.0597 1.421 3 
15.7855 10.0599 1.42075 3 
14.3487 8.62494 2.85495 3 
14.3499 11.4953 2.85609 3 
18.6578 10.0596 1.42072 3 
17.2209 8.62502 2.85467 3 
20.0937 8.62452 2.85487 3 
17.2217 11.4952 2.85583 3 
20.094 11.4948 2.85586 3 
21.5301 10.0591 1.42078 3 
22.9663 8.62389 2.85516 3 
22.9663 11.4942 2.856 3 
24.4022 10.0586 1.42089 3 
28.7099 11.4933 2.85655 3 
28.71 8.62289 2.85595 3 
27.2741 10.0582 1.42105 3 
25.8384 8.62336 2.85547 3 
25.8382 11.4937 2.8562 3 
1.43349 12.9279 1.42147 3 
1.43379 15.7973 1.42118 3 
2.86923 14.3626 2.85694 3 
4.30509 15.7975 1.42138 3 
4.30442 12.9279 1.42168 3 
7.17466 12.9284 1.42181 3 
7.17553 15.7982 1.42167 3 
5.73996 14.3629 2.85733 3 
10.0446 12.9293 1.42174 3 
10.0455 15.7991 1.42187 3 
8.61003 14.3637 2.85758 3 
11.4801 14.3645 2.85743 3 
12.915 12.9299 1.42153 3 
15.7862 12.9299 1.42134 3 
12.9157 15.7995 1.4218 3 
15.7866 15.7994 1.42159 3 
14.3508 14.3648 2.8571 3 
18.6581 12.9296 1.42124 3 
18.6581 15.799 1.42141 3 
17.2223 14.3645 2.85681 3 
20.0941 14.3641 2.85665 3 
21.5301 12.9291 1.42121 3 
21.5299 15.7986 1.42127 3 
22.966 14.3636 2.85659 3 
24.4019 15.7981 1.42117 3 
24.4021 12.9286 1.42123 3 
28.7098 14.3627 2.85666 3 
27.274 12.9282 1.42129 3 
27.2739 15.7976 1.42112 3 
25.838 14.3631 2.85656 3 
1.43435 18.6674 1.42058 3 
2.87011 17.232 2.85594 3 
2.87116 20.1023 2.85475 3 
4.30589 18.6676 1.42085 3 
7.17617 18.6684 1.42135 3 
5.74098 17.2326 2.85661 3 
5.7416 20.1033 2.85588 3 
10.0459 18.6691 1.4217 3 
8.61084 17.2337 2.85734 3 
11.4808 17.2344 2.8575 3 
8.61109 20.1043 2.8569 3 
11.4808 20.1046 2.85705 3 
12.9161 18.6695 1.42167 3 
15.7867 18.6694 1.42138 3 
14.3512 17.2344 2.85715 3 
14.3513 20.1048 2.8567 3 
18.658 18.6691 1.42109 3 
17.2222 17.234 2.85665 3 
20.0938 17.2335 2.85627 3 
17.2221 20.1044 2.85602 3 
20.0936 20.1039 2.8555 3 
21.5298 18.6686 1.42089 3 
24.4019 18.6681 1.42072 3 
22.9658 17.233 2.856 3 
22.9657 20.1034 2.85512 3 
28.7102 17.232 2.8557 3 
28.711 20.1023 2.8545 3 
27.2741 18.6676 1.42058 3 
25.838 17.2324 2.85578 3 
25.8382 20.1028 2.85475 3 
1.43481 21.5387 1.42023 3 
2.87135 22.9745 2.85442 3 
1.43473 24.4111 1.42025 3 
4.30598 24.4113 1.42049 3 
4.30618 21.539 1.42052 3 
7.17629 21.5396 1.42112 3 
5.74158 22.9752 2.85559 3 
7.17601 24.4115 1.42104 3 
10.0458 21.54 1.42144 3 
8.61091 22.9756 2.85659 3 
11.4804 22.9756 2.85653 3 
10.0455 24.4115 1.42126 3 
12.9159 21.5402 1.42133 3 
15.7868 21.5403 1.4211 3 
14.3508 22.9756 2.85598 3 
15.7866 24.4117 1.42084 3 
12.9155 24.4115 1.42105 3 
18.6581 21.5402 1.42084 3 
17.2222 22.9758 2.8556 3 
20.0939 22.9756 2.85525 3 
18.6583 24.412 1.42077 3 
21.5299 21.5399 1.42067 3 
24.4021 21.5394 1.42051 3 
22.966 22.9751 2.85506 3 
21.5302 24.4118 1.42076 3 
24.4023 24.4114 1.4207 3 
28.7115 22.9741 2.85418 3 
27.2745 21.5389 1.42032 3 
25.8387 22.9745 2.85469 3 
27.2746 24.4111 1.42046 3 
1.43433 27.2835 1.42042 3 
2.87097 25.8473 2.85462 3 
4.30558 27.2837 1.42059 3 
7.17556 27.2836 1.42105 3 
5.74122 25.8475 2.85562 3 
10.0449 27.2835 1.42115 3 
8.61048 25.8475 2.85645 3 
11.4799 25.8473 2.85616 3 
12.915 27.2834 1.42084 3 
15.7862 27.2836 1.42068 3 
14.3503 25.8472 2.85545 3 
18.6581 27.2839 1.42081 3 
17.2219 25.8475 2.85525 3 
20.0941 25.8478 2.85544 3 
21.5302 27.2839 1.42095 3 
22.9663 25.8475 2.85564 3 
24.4022 27.2835 1.42097 3 
28.7112 25.847 2.85463 3 
27.2743 27.2834 1.42069 3 
25.8388 25.847 2.85534 3 
1.43535 1.4444 4.28923 3 
1.43862 1.44628 7.15687 3 
2.87135 2.88106 5.72469 3 
0.0013631 0.00827833 5.72239 3 
0.000106839 2.88136 5.72329 3 
2.87241 0.00841205 5.72367 3 
4.30599 1.44425 4.29035 3 
7.1752 1.44382 4.29175 3 
4.30602 1.44428 7.16144 3 
7.17494 1.4436 7.16326 3 
5.74032 2.87998 5.72705 3 
5.7409 0.00788153 5.72654 3 
10.0443 1.44355 4.29164 3 
10.0445 1.44351 7.16307 3 
8.60951 2.87959 5.72767 3 
11.4784 2.87977 5.72633 3 
8.60995 0.00759792 5.72756 3 
11.4791 0.00732616 5.72662 3 
12.9133 1.44347 4.28999 3 
15.7839 1.44374 4.28875 3 
12.9132 1.44367 7.16075 3 
15.7797 1.44368 7.15521 3 
14.3466 2.88047 5.72295 3 
14.3477 0.00682136 5.72378 3 
18.6564 1.44434 4.28942 3 
18.6517 1.44519 7.1543 3 
17.2173 2.8817 5.72125 3 
20.091 2.88259 5.72298 3 
20.0923 0.00793178 5.72413 3 
17.2188 0.00699097 5.7225 3 
21.5293 1.44439 4.2906 3 
24.402 1.44363 4.29033 3 
21.5272 1.44645 7.15757 3 
22.9658 2.88135 5.72413 3 
24.4021 1.44359 7.15825 3 
22.9661 0.00768824 5.72534 3 
27.275 1.44391 4.28949 3 
27.2782 1.44627 7.15568 3 
25.8385 2.88007 5.7238 3 
25.8398 0.00744492 5.72403 3 
1.43455 4.31644 4.28997 3 
1.43372 7.18733 4.29115 3 
1.43639 4.31822 7.15923 3 
1.43359 7.18718 7.16241 3 
2.87008 5.75239 5.72614 3 
7.17472 4.3157 4.29206 3 
4.30529 4.3162 4.29104 3 
4.30456 7.18735 4.29194 3 
7.17431 7.18722 4.2925 3 
4.30422 7.18696 7.16358 3 
7.17454 4.31536 7.16362 3 
4.30523 4.31615 7.16242 3 
5.73974 5.75155 5.7277 3 
7.17417 7.18677 7.16409 3 
10.0438 4.31573 4.29166 3 
10.0435 7.18775 4.29187 3 
10.044 4.31563 7.16304 3 
8.60912 5.75144 5.7279 3 
10.0436 7.18756 7.16335 3 
11.4779 5.7524 5.7263 3 
12.9127 4.31634 4.2897 3 
15.783 4.31735 4.28812 3 
12.9124 7.18914 4.28982 3 
15.7829 7.19068 4.28803 3 
12.9122 4.31713 7.16022 3 
15.7777 4.32049 7.15355 3 
12.9118 7.19016 7.16067 3 
14.3458 5.75466 5.72253 3 
15.7778 7.19576 7.15433 3 
18.6556 4.31796 4.28845 3 
18.6563 7.1905 4.28816 3 
18.6491 4.32441 7.15088 3 
17.2164 5.75713 5.72004 3 
18.6531 7.19578 7.15359 3 
20.0919 5.75627 5.72128 3 
21.5293 4.31723 4.28943 3 
21.5299 7.18964 4.28882 3 
24.4028 7.1888 4.28935 3 
24.4023 4.31646 4.28958 3 
21.5285 4.32185 7.1543 3 
21.53 7.1938 7.15525 3 
22.9667 5.7548 5.72254 3 
24.4047 4.31967 7.15577 3 
24.4048 7.192 7.15699 3 
27.2744 4.31592 4.2897 3 
27.2748 7.18807 4.29001 3 
28.7105 5.75207 5.72515 3 
27.275 4.31647 7.15864 3 
25.8398 5.75356 5.72335 3 
27.2767 7.18985 7.15926 3 
1.43363 10.0582 4.29195 3 
1.43327 10.0578 7.16361 3 
2.86882 8.62248 5.72778 3 
2.86866 11.4929 5.72845 3 
4.30404 10.0578 4.29278 3 
7.17417 10.0581 4.29301 3 
4.30362 10.0574 7.16438 3 
5.73919 8.62244 5.72846 3 
7.17404 10.0577 7.16456 3 
5.73911 11.4928 5.72892 3 
10.0437 10.059 4.29241 3 
8.60893 8.62287 5.72833 3 
10.0439 10.0587 7.16411 3 
11.478 8.62436 5.72689 3 
8.60924 11.4935 5.72888 3 
11.4791 11.4947 5.72817 3 
12.9132 10.0605 4.29085 3 
15.7846 10.0612 4.28986 3 
12.9134 10.0603 7.16285 3 
14.3465 8.62713 5.72375 3 
15.7835 10.0618 7.16073 3 
14.3494 11.4957 5.72694 3 
18.6573 10.0608 4.28978 3 
20.0932 8.62689 5.72303 3 
17.219 8.62777 5.72258 3 
18.6565 10.0613 7.16032 3 
17.2214 11.4956 5.72639 3 
20.0939 11.495 5.72644 3 
21.5302 10.0601 4.29009 3 
24.4026 10.0595 4.29052 3 
21.53 10.0603 7.16084 3 
22.9668 8.62583 5.72385 3 
22.9663 11.4944 5.72675 3 
24.4027 10.0595 7.16158 3 
27.2745 10.0588 4.2911 3 
28.7107 8.62363 5.72617 3 
28.7098 11.4933 5.72773 3 
25.8395 8.62482 5.72479 3 
27.2745 10.0588 7.1625 3 
25.8383 11.4939 5.72715 3 
1.43341 12.9279 4.29249 3 
1.43387 15.7972 4.29181 3 
1.43299 12.9278 7.16408 3 
1.43375 15.7973 7.16332 3 
2.86903 14.3626 5.72828 3 
4.30428 12.9279 4.29298 3 
4.30517 15.7974 4.29234 3 
7.17457 12.9283 4.29331 3 
7.17546 15.7982 4.29306 3 
4.30479 15.7976 7.16404 3 
4.30387 12.9278 7.16453 3 
7.17442 12.9282 7.16476 3 
5.73974 14.363 5.72884 3 
7.17527 15.7984 7.1646 3 
10.0446 12.9292 4.29312 3 
10.0455 15.7991 4.29335 3 
10.0447 12.9291 7.16462 3 
8.61001 14.3637 5.72909 3 
10.0456 15.7993 7.16479 3 
11.4803 14.3645 5.72892 3 
12.9149 12.93 4.29248 3 
15.7861 12.9301 4.29196 3 
12.9158 15.7996 4.29311 3 
15.7867 15.7994 4.29262 3 
12.9152 12.9298 7.16414 3 
15.7863 12.93 7.16344 3 
12.9162 15.7997 7.16461 3 
14.351 14.3648 5.72842 3 
15.7871 15.7995 7.16418 3 
18.658 12.9297 4.29177 3 
18.6581 15.799 4.29222 3 
18.6581 12.9295 7.16316 3 
17.2224 14.3645 5.72801 3 
18.6584 15.7991 7.16374 3 
20.0941 14.3641 5.72781 3 
21.5301 12.9292 4.2918 3 
21.5299 15.7985 4.29196 3 
24.4022 12.9288 4.29191 3 
24.4019 15.7979 4.29176 3 
21.5301 12.929 7.16319 3 
21.5301 15.7987 7.1634 3 
22.966 14.3636 5.72773 3 
24.402 12.9285 7.16338 3 
24.4019 15.7982 7.16317 3 
27.274 12.9283 4.2921 3 
27.274 15.7975 4.29167 3 
28.7097 14.3628 5.72789 3 
27.2737 12.9282 7.16368 3 
25.8379 14.3632 5.72775 3 
27.2739 15.7977 7.16308 3 
1.4353 18.6661 4.2897 3 
1.43637 18.6655 7.16059 3 
2.87051 17.2317 5.72678 3 
2.87336 20.1002 5.72356 3 
0.000934829 20.0996 5.72243 3 
4.30672 18.6668 4.2907 3 
7.17626 18.6684 4.29232 3 
4.30648 18.6671 7.16272 3 
5.74086 17.2327 5.72807 3 
7.17603 18.6688 7.16404 3 
5.74195 20.103 5.72676 3 
10.0459 18.6693 4.29301 3 
8.61076 17.2339 5.72886 3 
10.046 18.6697 7.16455 3 
11.481 17.2346 5.72898 3 
8.61107 20.1045 5.72827 3 
11.4809 20.1049 5.72845 3 
12.9161 18.6696 4.29285 3 
15.7865 18.6692 4.29204 3 
12.9165 18.6701 7.16442 3 
14.3515 17.2345 5.72854 3 
15.7869 18.6695 7.16368 3 
14.3513 20.1049 5.72784 3 
18.6576 18.6685 4.29118 3 
17.2223 17.234 5.72783 3 
18.6576 18.6686 7.16256 3 
20.0938 17.2334 5.72722 3 
17.2214 20.1037 5.72626 3 
20.0927 20.1025 5.72486 3 
21.5295 18.6678 4.29055 3 
24.4019 18.6671 4.29005 3 
21.5294 18.6678 7.1616 3 
22.9658 17.2328 5.72675 3 
22.9653 20.1015 5.72384 3 
24.4021 18.667 7.16082 3 
28.7106 17.2317 5.72626 3 
27.2746 18.6665 4.28967 3 
25.8381 17.2322 5.72639 3 
27.2755 18.666 7.16023 3 
25.8388 20.1004 5.72295 3 
1.43695 21.5366 4.28783 3 
1.4421 21.5316 7.15419 3 
2.87414 22.9726 5.72235 3 
1.44229 24.4068 7.15344 3 
0.00351488 22.9702 5.71988 3 
1.43692 24.4099 4.28791 3 
4.30745 21.5381 4.28963 3 
4.30724 24.4109 4.28952 3 
7.17644 21.5395 4.29174 3 
7.17616 24.4115 4.29152 3 
4.30775 24.4101 7.16011 3 
4.3081 21.5371 7.16054 3 
7.17627 21.5397 7.16326 3 
5.74199 22.9748 5.72614 3 
7.17592 24.4116 7.16294 3 
10.0457 21.5401 4.29246 3 
10.0458 21.5406 7.16404 3 
8.61085 22.9758 5.7278 3 
11.4803 22.9757 5.72767 3 
10.0454 24.4119 7.16354 3 
10.0453 24.4115 4.29202 3 
12.9156 21.54 4.29195 3 
15.7865 21.54 4.29123 3 
12.9148 24.4111 4.29105 3 
15.7856 24.4109 4.29005 3 
12.9159 21.5404 7.16358 3 
15.7866 21.5402 7.16247 3 
14.3501 22.9749 5.72618 3 
15.7838 24.4091 7.15927 3 
12.9148 24.4111 7.16241 3 
18.6573 21.5393 4.29008 3 
18.6578 24.4114 4.28978 3 
18.6555 21.5375 7.15934 3 
17.2217 22.9753 5.72523 3 
20.0924 22.9738 5.72341 3 
18.6572 24.4109 7.15873 3 
21.5293 21.5385 4.28935 3 
24.4021 21.5377 4.28871 3 
24.4027 24.4102 4.28932 3 
21.5298 24.4109 4.28957 3 
21.5274 21.5353 7.15703 3 
22.9654 22.9726 5.7225 3 
24.4021 21.5335 7.15522 3 
21.5275 24.4077 7.1558 3 
24.4036 24.4055 7.15425 3 
27.2757 21.5368 4.28799 3 
27.2763 24.4094 4.28827 3 
27.2789 21.5315 7.1535 3 
25.8401 22.9711 5.72117 3 
27.2829 24.4029 7.1508 3 
1.43615 27.2835 4.2886 3 
1.44039 27.2835 7.15511 3 
2.87341 25.8468 5.7228 3 
0.00277114 25.8456 5.7211 3 
4.30666 27.2838 4.28985 3 
7.1757 27.2837 4.29156 3 
4.30683 27.2835 7.16064 3 
5.74149 25.8474 5.72619 3 
7.17541 27.2836 7.163 3 
10.0448 27.2834 4.29177 3 
8.61042 25.8476 5.72757 3 
10.045 27.2836 7.16323 3 
11.4797 25.8473 5.72702 3 
12.9141 27.283 4.29043 3 
15.7848 27.2829 4.28933 3 
12.914 27.2829 7.16147 3 
14.3487 25.8462 5.72475 3 
15.7815 27.281 7.15696 3 
18.6572 27.2834 4.2896 3 
17.2201 25.846 5.72339 3 
18.654 27.2811 7.15578 3 
20.0936 25.8473 5.72386 3 
21.5301 27.2837 4.29035 3 
24.4028 27.283 4.29051 3 
21.5302 27.2838 7.15829 3 
22.9663 25.846 5.7241 3 
24.4049 27.2809 7.15751 3 
27.2757 27.283 4.28928 3 
25.841 25.8448 5.72286 3 
27.2804 27.2821 7.15417 3 
2.87101 2.88099 8.59658 3 
0.00473649 2.88591 8.58991 3 
1.4374 1.44559 10.0299 3 
2.86851 2.87888 11.4703 3 
0.00172774 2.88337 11.4663 3 
2.87213 0.00809509 8.59503 3 
0.00897234 0.0113367 8.58571 3 
0.0050588 0.00725556 11.4613 3 
2.86876 0.00627472 11.4686 3 
5.73961 2.87943 8.59897 3 
4.30435 1.44332 10.034 3 
7.1744 1.44313 10.035 3 
5.73859 2.87835 11.4709 3 
5.74005 0.00752415 8.59836 3 
5.73877 0.00691295 11.4704 3 
8.60954 2.87924 8.59927 3 
11.4792 2.87992 8.598 3 
8.60992 0.00753982 11.4707 3 
10.0451 1.44349 10.0347 3 
8.60956 2.87875 11.4708 3 
11.4804 2.87974 11.47 3 
11.4799 0.00758217 8.5984 3 
8.60994 0.00755157 8.59917 3 
11.4811 0.00818464 11.4703 3 
14.3464 2.88179 8.59371 3 
12.9149 1.44431 10.033 3 
15.7807 1.44577 10.0269 3 
14.3495 2.8826 11.4671 3 
14.3479 0.00706757 8.59509 3 
14.3512 0.00889274 11.4686 3 
17.207 2.8857 8.58155 3 
20.0811 2.89248 8.58231 3 
20.0859 0.00532612 8.58785 3 
18.632 1.4449 10.0033 3 
17.2096 2.89468 11.4543 3 
19.9966 2.97698 11.3671 3 
17.2111 0.00392727 8.58581 3 
17.215 0.00801053 11.4612 3 
22.9684 2.88773 8.58782 3 
22.9661 0.00769555 8.59453 3 
22.9661 0.00768514 11.508 5 
21.5201 1.45359 9.9996 3 
22.9983 2.92934 11.4254 3 
24.3965 1.43798 10.0261 3 
25.838 2.87948 8.59187 3 
25.8463 0.0100321 8.58777 3 
25.888 0.0399037 11.4255 3 
27.2909 1.45804 10.0145 3 
25.83 2.87139 11.4689 3 
2.86938 5.75175 8.59839 3 
1.43494 4.31702 10.0328 3 
1.43224 7.18577 10.035 3 
2.86798 5.75032 11.4709 3 
5.73921 5.75084 8.59958 3 
4.304 4.315 10.0349 3 
4.30345 7.18604 10.0355 3 
7.17416 4.31459 10.0353 3 
7.17397 7.18605 10.0356 3 
5.73865 5.74998 11.4712 3 
8.60917 5.75092 8.59953 3 
11.4784 5.75235 8.5981 3 
10.0445 4.3152 10.0348 3 
10.0441 7.18681 10.0352 3 
8.60925 5.75022 11.471 3 
11.4794 5.75131 11.4705 3 
14.3449 5.75681 8.59358 3 
12.9136 4.31737 10.0327 3 
15.7772 4.32488 10.0253 3 
12.9132 7.18881 10.0343 3 
15.7809 7.1926 10.0325 3 
14.3482 5.75381 11.4699 3 
17.2042 5.76927 8.57967 3 
20.0879 5.76645 8.58157 3 
18.618 4.35546 9.99148 3 
18.6487 7.1962 10.0253 3 
17.2147 5.75874 11.4703 3 
20.0789 5.76375 11.4543 3 
24.4165 4.33228 10.0145 3 
22.9698 5.76234 8.58584 3 
21.5287 4.34145 10.0033 3 
21.5279 7.19263 10.0269 3 
22.9657 5.75835 11.4613 3 
24.4041 7.19074 10.03 3 
28.7075 5.74892 11.4706 3 
28.71 5.75153 8.59688 3 
25.8444 5.75813 8.58996 3 
27.273 4.31434 10.0318 3 
27.2755 7.18836 10.0329 3 
25.8419 5.75506 11.4663 3 
2.86808 8.62172 8.5997 3 
2.86808 11.4925 8.60008 3 
1.4324 10.0571 10.0355 3 
2.86729 8.6209 11.4713 3 
2.86756 11.4922 11.4713 3 
5.73879 8.62182 8.60008 3 
5.73877 11.4925 8.60033 3 
4.30309 10.0568 10.0358 3 
7.17387 10.0572 10.0358 3 
5.73847 8.62128 11.4713 3 
5.73852 11.4923 11.4714 3 
8.60902 8.62232 8.59995 3 
11.4786 8.6237 8.59915 3 
8.60926 11.4932 8.60029 3 
11.4795 11.4943 8.59986 3 
11.479 8.62306 11.4709 3 
10.0442 10.0582 10.0356 3 
8.60906 8.6218 11.4712 3 
8.60927 11.493 11.4713 3 
11.4797 11.4941 11.4711 3 
14.3474 8.62626 8.59738 3 
14.3501 11.4951 8.59919 3 
12.9141 10.0596 10.035 3 
15.7848 10.0603 10.0343 3 
14.3484 8.62512 11.4704 3 
14.3507 11.4946 11.4709 3 
17.2168 8.62858 8.59366 3 
20.0918 8.62702 8.59379 3 
17.2214 11.4951 8.59819 3 
20.0937 11.4942 8.5981 3 
18.6563 10.0598 10.0328 3 
17.2197 8.62518 11.4699 3 
20.091 8.62384 11.4672 3 
17.2224 11.4941 11.4705 3 
20.0939 11.493 11.47 3 
22.9666 8.6255 8.59516 3 
22.966 11.4935 8.5985 3 
21.5293 10.0584 10.0331 3 
22.9648 8.6221 11.4686 3 
22.9654 11.4922 11.4704 3 
24.4018 10.0578 10.0341 3 
28.7092 11.4928 8.59963 3 
28.7102 8.62291 8.59843 3 
28.7083 11.4923 11.4712 3 
28.7088 8.62148 11.471 3 
25.8395 8.62443 8.59668 3 
25.8378 11.4932 8.59906 3 
27.2734 10.0575 10.035 3 
25.8374 8.62191 11.4704 3 
25.8368 11.4921 11.471 3 
2.86849 14.3627 8.59994 3 
1.43234 12.9277 10.0356 3 
1.43305 15.7978 10.0352 3 
2.86801 14.3628 11.4712 3 
5.73941 14.363 8.60025 3 
4.30344 12.9276 10.0358 3 
4.30433 15.7979 10.0356 3 
7.17425 12.9281 10.0359 3 
7.17509 15.7986 10.0358 3 
5.73918 14.363 11.4713 3 
8.60999 14.3638 8.60041 3 
11.4806 14.3645 8.6003 3 
10.0449 12.9289 10.0358 3 
10.0457 15.7995 10.0359 3 
8.60998 14.3638 11.4714 3 
11.4808 14.3645 11.4713 3 
14.3516 14.3647 8.60001 3 
12.9156 12.9296 10.0356 3 
15.787 12.9295 10.0353 3 
12.9166 15.7999 10.0359 3 
15.7878 15.7997 10.0357 3 
14.352 14.3647 11.4712 3 
17.2229 14.3645 8.59963 3 
20.0944 14.364 8.59937 3 
18.6585 12.929 10.0348 3 
18.6591 15.7995 10.0354 3 
17.2235 14.3644 11.471 3 
20.0949 14.364 11.4708 3 
22.966 14.3636 8.59928 3 
21.5301 12.9284 10.0348 3 
21.5305 15.7992 10.035 3 
22.966 14.3636 11.4707 3 
24.4019 15.7988 10.0348 3 
24.4016 12.928 10.0351 3 
28.7092 14.3629 8.59956 3 
25.8376 14.3632 8.59935 3 
28.7085 14.363 11.4711 3 
27.273 12.9278 10.0354 3 
27.2736 15.7982 10.0348 3 
25.8371 14.3633 11.4709 3 
2.86987 17.2323 8.59909 3 
2.87251 20.1011 8.59728 3 
1.43508 18.667 10.0343 3 
2.86926 17.2328 11.4709 3 
2.87142 20.1022 11.4704 3 
0.000177809 20.102 11.4699 3 
0.00315114 20.0987 8.59358 3 
5.74048 17.2331 8.59981 3 
5.74131 20.1036 8.59906 3 
4.30582 18.6677 10.035 3 
7.17577 18.6693 10.0356 3 
5.7402 17.2334 11.4711 3 
5.74084 20.1043 11.4709 3 
8.61072 17.2342 8.6003 3 
11.4813 17.2349 8.60037 3 
8.61093 20.1051 8.59992 3 
11.4812 20.1056 8.60008 3 
10.0461 18.6702 10.0359 3 
8.6107 17.2345 11.4714 3 
11.4815 17.2352 11.4714 3 
8.61087 20.1056 11.4712 3 
11.4815 20.1061 11.4713 3 
14.352 17.2349 8.60014 3 
14.352 20.1057 8.59971 3 
12.917 18.6706 10.0358 3 
15.7878 18.6704 10.0356 3 
14.3525 17.2353 11.4713 3 
14.3528 20.1065 11.4712 3 
17.223 17.2345 8.59968 3 
20.0943 17.2341 8.59908 3 
17.222 20.1045 8.59848 3 
20.0927 20.1029 8.59672 3 
18.6587 18.6698 10.035 3 
17.2238 17.2351 11.4712 3 
20.0953 17.2352 11.471 3 
17.2234 20.1059 11.471 3 
20.0948 20.1055 11.4704 3 
22.9661 17.2337 8.59849 3 
22.9655 20.1018 8.59517 3 
21.5303 18.6695 10.0341 3 
22.9666 17.235 11.4704 3 
22.9673 20.1052 11.4686 3 
24.4028 18.6688 10.0331 3 
28.7106 17.2322 8.59812 3 
25.8383 17.233 8.59807 3 
25.8402 20.1003 8.59376 3 
28.7096 17.2332 11.4706 3 
27.2757 18.6674 10.0327 3 
25.8381 17.2342 11.47 3 
25.841 20.1034 11.4672 3 
2.87501 22.9704 8.59354 3 
0.00523413 22.9685 11.4704 3 
1.44276 24.4023 10.0253 3 
1.439 21.5347 10.0324 3 
2.87164 22.9734 11.4699 3 
0.0157443 22.958 8.57962 3 
5.74143 22.9748 8.59803 3 
4.30632 24.4098 10.0327 3 
4.30663 21.5384 10.0342 3 
7.17538 24.4119 10.0347 3 
7.1758 21.5405 10.0352 3 
5.74044 22.9759 11.4706 3 
8.61074 22.9763 8.59947 3 
11.4808 22.9764 8.59955 3 
8.61062 22.977 11.471 3 
10.046 21.5413 10.0356 3 
10.0458 24.4126 10.0353 3 
11.4813 22.9773 11.4712 3 
14.3507 22.9756 8.59839 3 
12.9166 21.5413 10.0355 3 
15.7879 21.5416 10.035 3 
14.3521 22.977 11.4709 3 
12.916 24.4122 10.0349 3 
15.7852 24.4103 10.0328 3 
17.2221 22.9758 8.59692 3 
20.0878 22.9693 8.59002 3 
20.0903 22.9723 11.4664 3 
17.2247 22.9784 11.4706 3 
18.6593 24.413 10.0318 3 
18.6567 21.539 10.0329 3 
22.9624 22.965 8.58584 3 
21.5281 21.5366 10.03 3 
24.4034 24.3859 10.0033 3 
24.4042 21.5347 10.0269 3 
21.5157 24.3951 10.0145 3 
22.9665 22.969 11.4613 3 
25.8442 22.9609 8.58155 3 
25.8532 22.9635 11.4543 3 
27.2833 21.5311 10.0253 3 
27.314 24.3718 9.99148 3 
2.87361 25.8454 8.59366 3 
0.0130223 25.8416 8.58149 3 
1.43928 27.2814 10.0269 3 
0.0103761 25.8326 11.4543 3 
2.87045 25.8446 11.4672 3 
5.74071 25.8472 8.59794 3 
4.30502 27.2828 10.033 3 
5.73952 25.8474 11.47 3 
7.1748 27.2836 10.0347 3 
8.61035 25.8479 8.59923 3 
11.4803 25.8478 8.59895 3 
10.0455 27.284 10.035 3 
8.61029 25.8484 11.4708 3 
11.4813 25.8488 11.471 3 
14.3491 25.8462 8.59662 3 
15.7827 27.2816 10.03 3 
14.3515 25.8483 11.4703 3 
12.9156 27.2838 10.034 3 
17.2154 25.8414 8.58997 3 
20.0942 25.8479 8.59194 3 
20.0442 28.6875 11.4255 3 
17.2184 25.8439 11.4663 3 
20.1023 25.856 11.469 3 
18.6413 27.2693 10.0145 3 
22.9638 25.8397 8.58785 3 
24.4121 27.2738 9.99958 3 
22.9339 25.7981 11.4255 3 
21.5358 27.2894 10.0261 3 
25.851 25.8349 8.58226 3 
25.9356 25.7503 11.3671 3 
27.3001 27.2824 10.0032 3 
1.43242 1.44143 12.9058 3 
1.43243 1.44147 15.7787 3 
2.86732 2.87765 14.3422 3 
2.86618 0.00425526 14.3422 3 
4.3025 1.44173 12.9065 3 
7.17397 1.4426 12.9065 3 
4.30251 1.44177 15.7779 3 
7.17398 1.44264 15.7778 3 
5.73822 2.87788 14.3422 3 
5.7381 0.00642731 14.3422 3 
10.0455 1.44345 12.9063 3 
10.0455 1.44349 15.778 3 
8.60993 0.00754338 14.3422 3 
8.60959 2.87851 14.3422 3 
11.4809 2.87932 14.3421 3 
11.4818 0.00870927 14.3422 3 
12.9169 1.44477 12.9055 3 
15.7871 1.44848 12.9017 3 
14.3538 0.0109436 14.3422 3 
14.3518 2.88044 14.3421 3 
12.9169 1.44479 15.7788 3 
15.7871 1.4485 15.7825 3 
19.9916 0.0123266 14.3421 5 
18.6484 1.46599 12.8755 3 
17.2252 2.87944 14.3421 3 
20.1456 2.82788 14.3421 5 
18.6484 1.46601 15.8088 3 
17.2219 0.0171064 14.3422 3 
21.3799 1.59379 12.5045 5 
24.3649 1.40645 12.9198 5 
22.9615 2.9819 14.3421 5 
21.3799 1.59385 16.1798 5 
24.3649 1.40649 15.7646 5 
22.2168 0.756621 14.3422 5 
28.71 2.87949 14.3422 3 
27.2848 1.45294 12.897 3 
25.8203 2.86174 14.3422 3 
25.9407 0.00312232 14.3422 5 
27.2848 1.45299 15.7874 3 
1.43252 4.31469 12.9065 3 
1.43113 7.18464 12.9067 3 
2.8675 5.74978 14.3421 3 
1.43255 4.31474 15.7779 3 
1.43115 7.18467 15.7776 3 
4.30307 4.31394 12.9067 3 
7.17393 4.314 12.9066 3 
4.30299 7.18543 12.9067 3 
7.17388 7.18561 12.9067 3 
5.73849 5.74968 14.3421 3 
4.30309 4.31399 15.7776 3 
4.30302 7.18548 15.7775 3 
7.17395 4.31405 15.7777 3 
7.17391 7.18566 15.7775 3 
10.0449 4.3146 12.9064 3 
10.0443 7.18629 12.9065 3 
11.4797 5.75089 14.3421 3 
8.60929 5.74997 14.3421 3 
10.0449 4.31464 15.7778 3 
10.0443 7.18633 15.7776 3 
12.9152 4.31579 12.906 3 
15.7845 4.31789 12.9064 3 
12.9139 7.18798 12.9063 3 
15.7824 7.19101 12.9061 3 
14.3489 5.75291 14.3421 3 
15.7844 4.31791 15.7778 3 
12.9152 4.31584 15.7781 3 
12.9139 7.18803 15.7778 3 
15.7824 7.19105 15.778 3 
18.6532 4.32024 15.7675 3 
18.6532 4.32021 12.9167 3 
18.6556 7.18885 12.9064 3 
20.0941 5.7481 14.3421 3 
18.6556 7.18886 15.7777 3 
17.2159 5.75751 14.3421 3 
21.5077 4.32495 12.8755 3 
24.4114 4.32608 12.897 3 
21.5251 7.1862 12.9018 3 
24.3999 7.18572 12.9057 3 
22.9566 5.75146 14.3421 3 
21.5076 4.325 15.8088 3 
21.5251 7.1862 15.7824 3 
24.3999 7.18573 15.7785 3 
24.4114 4.32611 15.7873 3 
27.2682 4.30955 12.9069 3 
27.2732 7.18592 12.9065 3 
25.838 5.75135 14.3421 3 
28.7063 5.74771 14.3422 3 
27.2681 4.30958 15.7774 3 
27.2732 7.18594 15.7778 3 
1.43182 10.0566 12.9067 3 
2.86701 8.62059 14.3421 3 
1.43182 10.0566 15.7775 3 
2.86739 11.492 14.3421 3 
4.30279 10.0565 12.9068 3 
7.17382 10.057 12.9067 3 
5.73847 11.4922 14.3421 3 
4.30283 10.0565 15.7774 3 
7.17387 10.057 15.7774 3 
5.73839 8.62109 14.3421 3 
10.0443 10.0579 12.9066 3 
11.4792 8.62283 14.342 3 
8.6091 8.62162 14.3421 3 
8.60929 11.4929 14.342 3 
10.0443 10.0579 15.7775 3 
11.4798 11.4939 14.342 3 
12.9144 10.0593 12.9065 3 
15.7856 10.0596 12.9063 3 
12.9144 10.0593 15.7776 3 
15.7856 10.0596 15.7777 3 
14.3509 11.4945 14.342 3 
14.3488 8.62481 14.342 3 
17.2206 8.62448 14.3421 3 
18.6578 10.0581 12.9061 3 
18.6578 10.0582 15.7781 3 
17.2228 11.4938 14.342 3 
20.0943 11.4925 14.3421 3 
20.0931 8.62149 14.3421 3 
21.5288 10.0564 12.9055 3 
24.4002 10.0559 12.9064 3 
21.5288 10.0564 15.7787 3 
24.4001 10.0559 15.7778 3 
22.9627 8.61951 14.3421 3 
22.9649 11.4916 14.3421 3 
28.708 11.4921 14.3421 3 
28.7082 8.62096 14.3422 3 
27.2724 10.0565 12.9067 3 
25.8363 11.4917 14.3421 3 
27.2723 10.0565 15.7776 3 
25.8361 8.62069 14.3421 3 
1.43188 12.9276 12.9067 3 
1.43254 15.798 12.9066 3 
1.4319 12.9275 15.7775 3 
1.43256 15.798 15.7777 3 
2.86784 14.3628 14.3421 3 
4.3032 12.9275 12.9067 3 
4.30408 15.798 12.9067 3 
7.17419 12.928 12.9067 3 
7.17503 15.7987 12.9067 3 
4.3041 15.7979 15.7776 3 
4.30325 12.9275 15.7775 3 
7.17424 12.9279 15.7774 3 
7.17506 15.7986 15.7775 3 
5.73912 14.363 14.3421 3 
10.0449 12.9288 12.9067 3 
10.0458 15.7995 12.9067 3 
8.61001 14.3637 14.3421 3 
10.045 12.9288 15.7774 3 
10.0458 15.7995 15.7774 3 
11.4809 14.3645 14.3421 3 
12.9159 12.9295 12.9066 3 
15.7875 12.9293 12.9065 3 
12.9168 15.7999 12.9067 3 
15.7882 15.7999 12.9067 3 
14.3522 14.3646 14.342 3 
12.9159 12.9294 15.7775 3 
15.7874 12.9293 15.7775 3 
12.9169 15.7999 15.7774 3 
15.7882 15.7998 15.7774 3 
18.6591 12.9286 12.9064 3 
18.6597 15.7997 12.9066 3 
18.6591 12.9286 15.7777 3 
18.6597 15.7997 15.7775 3 
17.2238 14.3643 14.342 3 
20.0952 14.364 14.3421 3 
21.5302 12.9279 12.9063 3 
21.531 15.7997 12.9065 3 
24.4018 15.7993 12.9063 3 
24.401 12.9275 12.9065 3 
21.5301 12.9279 15.7779 3 
21.531 15.7997 15.7777 3 
24.4018 15.7993 15.7779 3 
24.401 12.9276 15.7777 3 
22.966 14.3636 14.3421 3 
28.7082 14.363 14.3421 3 
27.2723 12.9276 12.9067 3 
27.2729 15.7986 12.9065 3 
25.8368 14.3633 14.3421 3 
27.2723 12.9276 15.7776 3 
27.2729 15.7986 15.7778 3 
1.43426 18.6677 12.9064 3 
1.43427 18.6676 15.7779 3 
2.87109 20.1024 14.3422 3 
2.86905 17.2329 14.3422 3 
4.30546 18.6681 12.9066 3 
7.17565 18.6695 12.9067 3 
5.7407 20.1045 14.3422 3 
5.74014 17.2335 14.3421 3 
4.3055 18.668 15.7778 3 
7.17568 18.6695 15.7776 3 
10.0462 18.6705 12.9068 3 
11.4817 20.1063 14.3421 3 
8.61071 17.2345 14.3421 3 
8.61085 20.1057 14.3422 3 
10.0462 18.6704 15.7775 3 
11.4816 17.2352 14.3421 3 
12.9173 18.6709 12.9068 3 
15.7883 18.6709 12.9067 3 
14.3527 17.2354 14.3421 3 
14.3531 20.1068 14.3421 3 
12.9173 18.6709 15.7775 3 
15.7884 18.6708 15.7775 3 
18.6598 18.6708 12.9067 3 
17.224 20.1064 14.3421 3 
20.096 20.1067 14.3421 3 
20.0958 17.2356 14.3421 3 
18.6598 18.6708 15.7775 3 
17.2241 17.2353 14.3421 3 
21.5319 18.6714 12.9064 3 
24.4032 18.6708 12.9055 3 
22.9671 17.2357 14.3421 3 
21.5319 18.6714 15.7778 3 
24.4031 18.6708 15.7788 3 
22.9693 20.1077 14.3421 3 
25.8388 20.1057 14.3422 3 
27.2741 18.6691 12.9061 3 
28.7092 17.2334 14.3422 3 
28.7112 20.1027 14.3422 3 
27.2741 18.669 15.7782 3 
25.8376 17.2347 14.3421 3 
2.87094 22.9743 14.3422 3 
1.43741 21.5362 12.9062 3 
1.43541 24.4093 12.9065 3 
1.43743 21.5362 15.7782 3 
1.4354 24.4093 15.7779 3 
0.00400143 22.9697 14.3422 3 
4.30593 21.5393 12.9064 3 
7.17499 24.4126 12.9065 3 
4.30463 24.4114 12.9061 3 
7.17556 21.541 12.9066 3 
4.30595 21.5392 15.7779 3 
7.1756 21.5409 15.7777 3 
4.30463 24.4114 15.7783 3 
7.17499 24.4125 15.7779 3 
5.74015 22.9763 14.3422 3 
10.0461 21.5417 12.9067 3 
10.046 24.4132 12.9066 3 
11.4815 22.9776 14.3421 3 
8.61059 22.9773 14.3422 3 
10.0461 21.5417 15.7776 3 
10.046 24.4132 15.7777 3 
15.789 21.5427 12.9067 3 
12.9171 21.5419 12.9067 3 
15.7876 24.4126 12.9065 3 
12.917 24.4133 12.9067 3 
14.3526 22.9775 14.3422 3 
12.9171 21.5419 15.7775 3 
15.789 21.5427 15.7776 3 
12.917 24.4133 15.7776 3 
15.7876 24.4126 15.7779 3 
18.659 21.5415 12.9065 3 
18.6641 24.4178 12.9069 3 
17.2259 22.9796 14.3422 3 
18.659 21.5414 15.7778 3 
18.6641 24.4178 15.7774 3 
20.0942 22.976 14.3422 3 
22.9755 22.9759 14.3422 3 
24.4245 24.4024 12.8755 3 
24.4069 21.5411 12.9018 3 
21.5208 24.4013 12.897 3 
21.5323 21.5416 12.9057 3 
21.5322 21.5416 15.7786 3 
24.4069 21.541 15.7825 3 
24.4244 24.4024 15.8088 3 
21.5208 24.4013 15.7873 3 
27.2763 21.5384 12.9065 3 
27.2788 24.407 12.9168 3 
25.8379 22.9791 14.3422 3 
27.2763 21.5383 15.7779 3 
27.2787 24.407 15.7676 3 
1.43288 27.2787 12.9018 3 
1.43289 27.2788 15.7826 3 
2.86812 25.8468 14.3422 3 
4.30301 27.2824 12.9055 3 
7.17434 27.2836 12.9063 3 
5.739 25.8478 14.3422 3 
4.30302 27.2824 15.7789 3 
7.17437 27.2836 15.7781 3 
8.61029 25.8486 14.3422 3 
11.4817 25.8493 14.3421 3 
10.0459 27.2845 12.9065 3 
10.0459 27.2845 15.7778 3 
12.9175 27.2854 12.9065 3 
15.7877 27.2858 12.9057 3 
12.9175 27.2854 15.7779 3 
15.7877 27.2858 15.7786 3 
14.3528 25.8496 14.3422 3 
18.6474 27.2744 12.897 3 
18.6474 27.2745 15.7873 3 
17.2221 25.8479 14.3422 3 
20.1119 25.8657 14.3422 3 
23.7155 27.9708 14.3422 5 
21.5673 27.321 12.9198 5 
22.9708 25.7455 14.3422 5 
21.5673 27.321 15.7645 5 
24.5523 27.1337 16.1798 5 
24.5523 27.1337 12.5046 5 
28.7102 28.7102 14.3422 3 
27.2837 27.2613 12.8755 3 
27.2836 27.2614 15.8089 3 
25.7865 25.8995 14.3422 5 
28.7067 25.8478 14.3422 3 
1.43742 1.44569 18.6544 3 
2.86855 2.87897 17.214 3 
0.00172877 2.88346 17.2181 3 
2.87106 2.88112 20.0877 3 
2.87215 0.00816346 20.0893 3 
0.00473558 2.88603 20.0944 3 
0.00504509 0.00730801 17.2232 3 