ITEM: TIMESTEP
98000
ITEM: NUMBER OF ATOMS
2001
ITEM: BOX BOUNDS pp pp pp
0.0000000000000000e+00 2.8712000000000000e+01
0.0000000000000000e+00 2.8712000000000000e+01
0.0000000000000000e+00 2.8712000000000000e+01
ITEM: ATOMS x y z 
1.48486 1.45497 1.29741 
2.80646 3.04381 2.79695 
4.17631 1.50296 1.40568 
7.25303 1.45332 1.24201 
5.5812 3.07106 2.88111 
5.79913 0.0823651 2.83208 
10.05 1.47467 1.53298 
8.51079 2.90896 2.74352 
11.4269 2.82469 2.97605 
11.5071 0.0120856 2.9407 
12.7075 1.50262 1.21794 
15.8301 1.34953 1.37955 
14.3018 2.7647 2.76181 
18.5201 1.48549 1.3743 
17.0463 2.77842 2.9083 
20.0685 2.82712 2.91864 
19.9759 0.0511793 2.85946 
18.5588 4.09112 1.43217 
22.9767 3.03566 2.92262 
21.434 1.52188 1.42609 
24.389 1.43629 1.22293 
22.9265 3.03678 0.128811 
22.8283 0.11814 2.64236 
22.6741 0.0281427 0.0216344 
28.6502 2.74174 2.77991 
28.6809 0.075135 2.83407 
28.6845 2.81223 0.0260449 
27.3348 1.4694 1.44738 
25.7383 2.93409 2.82385 
25.8862 3.25664 0.0513294 
1.37734 4.26523 1.3592 
1.4878 7.35979 1.29333 
2.84843 5.75901 2.7272 
0.0422135 5.59106 2.91877 
2.77453 5.82587 0.0103278 
4.15306 4.30705 1.30288 
4.36603 7.19558 1.29969 
6.99546 4.33792 1.37618 
7.04597 7.12285 1.26336 
5.74602 5.67279 2.73039 
10.2029 4.38866 1.49233 
9.9159 7.22621 1.25469 
8.81927 5.82304 2.8621 
11.5234 5.58602 2.95761 
8.64257 5.66152 0.0827585 
12.9872 4.32534 1.47964 
15.7329 4.39004 1.59398 
12.8146 7.11535 1.36806 
15.7174 7.2439 1.40205 
14.408 5.81671 2.87907 
18.7628 7.37041 1.18067 
17.2305 5.80443 2.79027 
19.8885 5.88399 2.87608 
19.8644 5.59587 0.0437052 
17.054 5.75355 0.104343 
21.1847 4.32581 1.43368 
21.4758 7.01633 1.4606 
22.9968 5.83611 3.01503 
24.2173 7.25151 1.38982 
24.3309 4.61479 1.51293 
22.8186 5.75197 0.0565307 
28.5026 5.71987 0.00384556 
27.298 4.25505 1.47586 
27.1751 7.20395 1.44554 
26.0776 5.83611 2.97357 
1.29305 10.0776 1.51821 
2.84826 8.71014 2.97174 
2.76851 11.611 2.87862 
2.77562 8.77935 0.0288448 
0.00539643 11.7208 2.8317 
0.142672 11.3377 0.0529193 
4.31032 9.88047 1.4314 
7.08795 9.94306 1.32316 
5.75139 8.40542 2.93141 
5.74829 11.5248 2.76916 
9.87681 9.98911 1.38578 
8.5345 8.48251 2.82598 
11.2905 8.59039 2.80372 
8.54464 11.4058 2.76337 
11.398 11.2996 2.79135 
11.4363 11.4089 0.0919107 
8.56947 11.5187 0.0815052 
12.9413 10.0954 1.44741 
15.8647 10.3263 1.38214 
14.1099 8.59072 3.0315 
14.2899 11.5761 2.92344 
14.2299 11.4985 0.07626 
14.1529 8.65873 0.146628 
18.8769 9.97565 1.31467 
17.1001 8.68754 2.64948 
19.9334 8.5327 2.90078 
17.3371 11.3361 2.80282 
20.1457 11.5868 2.93426 
17.101 8.64067 0.0263297 
21.5285 10.1302 1.54889 
22.8577 8.6182 2.70451 
22.9466 11.4499 2.8467 
24.3843 10.0405 1.21398 
28.661 8.43754 2.79493 
27.1816 10.0795 1.47373 
25.7748 8.61872 2.71089 
27.362 9.9957 4.02383 
25.9294 11.5722 2.89751 
26.0534 11.6514 0.0529535 
25.7287 8.6407 0.0255814 
1.7139 13.086 1.43001 
1.47149 15.7564 1.32458 
2.80513 14.314 2.95717 
4.25605 15.7557 1.49326 
4.12524 12.8489 1.26937 
7.13092 12.747 1.38552 
7.09995 15.7568 1.37934 
5.70014 14.3982 3.03545 
9.88989 12.9924 1.39528 
10.095 15.9665 1.48994 
8.61226 14.4489 2.81299 
11.4608 14.4788 3.02109 
11.6252 14.5528 0.212051 
12.9238 13.0407 1.58804 
15.5636 12.9512 1.49646 
13.0581 15.9648 1.51338 
15.9084 15.7048 1.44537 
14.429 14.2782 3.00007 
18.6894 12.808 1.39138 
18.7154 15.8113 1.28458 
17.3323 14.1906 2.83412 
20.2721 14.3255 2.63962 
17.2809 14.2499 0.0256002 
21.589 12.9586 1.42125 
21.3869 15.9309 1.3689 
23.2066 14.4501 2.82691 
24.3258 15.906 1.26172 
24.386 12.8592 1.35275 
28.584 14.4086 2.92261 
27.2756 12.9303 1.49095 
27.3137 15.8751 1.52418 
25.7548 14.5864 2.78099 
1.34971 18.4734 1.47609 
2.76745 17.2788 2.84103 
2.89958 20.0319 2.82839 
4.22224 18.4742 1.47052 
7.14085 18.7415 1.4224 
6.04582 17.3316 3.0423 
5.83936 19.9148 2.85587 
5.64618 17.0298 0.11672 
10.0006 18.6006 1.36071 
8.75933 17.1408 2.99533 
11.4388 17.398 3.05765 
8.70484 20.0593 2.81168 
11.4839 19.9506 2.91379 
11.5196 20.1388 0.0608278 
12.9552 18.7072 1.48293 
15.7831 18.5424 1.53355 
14.4764 17.1462 2.98656 
14.3209 19.9711 3.0594 
14.3122 17.3228 0.0826633 
14.2913 20.1308 0.175314 
18.7089 18.7463 1.23631 
17.2883 17.0935 2.78611 
20.0966 17.3197 2.8287 
17.3751 20.2045 2.84917 
20.1435 20.1087 2.78885 
21.474 18.5491 1.47275 
24.199 18.6603 1.5944 
22.9755 17.1175 3.01544 
22.8838 20.1539 2.92629 
28.5724 17.0847 3.1137 
28.6131 20.0842 2.83813 
27.3533 18.7037 1.62108 
25.832 17.1664 2.80481 
25.6485 20.1846 2.86962 
1.27118 21.54 1.45791 
2.7493 23.012 2.71119 
1.37798 24.3753 1.34174 
2.73904 22.9392 0.233001 
4.32179 24.3592 1.29378 
4.31601 21.5112 1.32074 
7.28566 21.6475 1.45245 
5.63302 23.0587 2.81587 
7.43931 24.218 1.26434 
10.1623 21.5596 1.47405 
8.77533 23.0496 2.79341 
11.4334 22.832 3.10466 
9.99893 24.4259 1.33963 
11.5669 23.0044 0.00778284 
12.9758 21.5492 1.54053 
15.6766 21.578 1.61431 
14.2039 23.0086 3.10208 
15.8116 24.4683 1.50118 
12.8812 24.5619 1.5267 
14.3004 23.1011 0.0972024 
18.7103 21.5518 1.40891 
17.2029 23.0688 2.99981 
20.1644 22.8691 2.97859 
18.7306 24.5 1.43909 
17.1733 23.0294 0.15102 
20.0286 22.9711 0.101873 
21.559 21.4546 1.22273 
24.214 21.5553 1.37446 
22.8476 23.0503 3.01192 
21.4677 24.3399 1.32795 
24.3961 24.3003 1.06739 
28.6743 23.3217 2.90362 
27.2486 21.5537 1.35682 
25.797 23.1645 2.80326 
27.2648 24.4196 1.3933 
2.90729 28.5433 2.77619 
1.49134 27.3791 1.33819 
2.93696 25.879 2.65828 
0.0474617 25.8362 2.74472 
4.41311 27.2861 1.33842 
7.0817 27.4222 1.36003 
5.83936 25.8524 2.71364 
8.66673 28.6365 2.65812 
10.0717 27.3003 1.43283 
8.69483 25.9043 2.71012 
11.4693 26.1045 2.92384 
14.2463 28.634 2.96338 
12.889 27.2595 1.31236 
15.8406 27.2793 1.31158 
14.3878 26.0451 2.85961 
17.286 28.6594 2.77968 
18.6334 27.2612 1.45726 
17.5354 25.8714 3.06847 
20.1641 26.059 2.92963 
21.5969 27.1725 1.41563 
22.8515 25.6554 2.84487 
24.5002 27.368 1.2427 
25.676 28.6732 2.82077 
27.2811 27.2076 1.36223 
25.647 25.8908 2.7788 
1.53665 1.44312 4.28257 
1.3776 4.04543 4.34505 
1.31807 1.42763 7.03708 
2.97048 2.91524 5.86245 
0.0910535 0.141125 5.55662 
4.3159 1.55959 4.28032 
7.21106 1.47655 4.16121 
4.2847 1.58369 7.1998 
7.1225 1.35545 7.17579 
5.65604 3.07985 5.69756 
10.0014 1.50167 4.20106 
9.98932 1.42908 7.07583 
8.64392 2.725 5.69584 
11.5875 2.9133 5.79045 
8.58648 0.0838083 5.65154 
11.4843 0.111952 5.786 
12.9391 1.54012 4.22085 
15.7338 1.30793 4.33077 
12.9812 1.32768 7.32826 
15.9465 1.50051 7.11607 
14.2907 2.76212 5.72946 
18.6752 1.34788 4.33917 
18.7941 1.34662 7.29344 
17.3188 2.8677 5.65133 
20.2473 2.76883 5.70634 
20.0786 0.0143337 5.80658 
17.2554 0.0788864 5.7155 
21.5363 1.29138 4.33194 
24.3968 1.36203 4.28149 
21.6444 1.40057 7.15026 
22.8466 2.99921 5.50586 
24.3571 1.44905 7.27265 
23.0394 0.00491524 5.6687 
27.3303 1.27685 4.20843 
28.4395 2.94269 5.81908 
27.3525 1.32244 7.14045 
25.8516 2.97947 5.74811 
25.7234 0.0678376 5.75852 
1.46751 7.15833 4.32324 
1.3483 4.19973 7.30732 
1.36886 7.14796 7.13398 
2.91493 5.88897 5.50874 
7.22693 4.41906 4.209 
4.24734 4.46458 4.19329 
4.54503 7.16141 4.35152 
7.39603 6.95608 4.33077 
4.26923 7.42748 7.25449 
7.14392 4.21029 7.15947 
4.27184 4.44594 7.05757 
5.82399 5.8522 5.70151 
7.30743 7.05667 7.30291 
10.1488 4.18609 4.48616 
10.2992 7.1441 4.24671 
10.1239 4.1525 7.14537 
8.65097 5.66217 5.92523 
10.1765 7.08296 7.15806 
11.5314 5.55952 5.92028 
12.9183 4.14633 4.3042 
15.5668 4.44542 4.28149 
12.8204 6.96157 4.3144 
15.7492 7.29887 4.30355 
12.8362 4.20904 7.24308 
15.3944 4.41629 7.05229 
12.6902 7.27918 7.14802 
14.2112 5.82738 5.8222 
15.7483 7.16931 7.19598 
18.6639 4.36325 4.15836 
18.4205 7.30339 4.29736 
18.9524 4.29253 7.14412 
17.1938 5.66854 5.63244 
18.5521 7.29336 7.21218 
20.0156 5.88235 5.76067 
21.398 4.36576 4.1437 
21.4985 7.16757 4.27249 
24.4334 7.25436 4.27364 
24.448 4.41804 4.45838 
21.5354 4.1953 7.30566 
21.4301 7.21603 7.20849 
22.9666 5.77173 5.84023 
24.2784 4.36384 7.12539 
27.2094 4.27786 4.1807 
27.3662 7.241 4.18521 
24.6821 7.30681 7.19039 
28.5387 5.7137 5.82403 
27.2919 4.30154 7.26746 
25.9337 5.95497 5.77034 
27.2873 7.30938 7.29594 
1.33537 10.1131 4.16772 
1.43823 10.1009 6.98335 
2.77376 8.72349 5.58754 
3.03981 11.5659 5.71829 
4.47207 10.101 4.23441 
7.26858 10.2308 4.23073 
4.36076 10.0642 7.09824 
5.80254 8.42889 5.73081 
7.11696 9.95488 6.93416 
5.70794 11.5721 5.72661 
9.94003 9.98454 4.31467 
8.61669 8.49772 5.71323 
9.98278 10.3059 7.09793 
11.3782 8.77642 5.74194 
8.56107 11.7791 5.66336 
11.564 11.6039 5.82463 
12.8645 10.2175 4.30375 
15.7943 10.0615 4.26219 
12.9326 10.1809 7.25625 
14.1973 8.72018 5.67579 
15.7605 10.0873 7.20981 
14.4126 11.4855 5.63926 
18.5372 10.0188 4.30487 
20.0775 8.53422 5.64948 
17.0531 8.69412 5.8532 
18.5916 9.81566 7.28902 
17.3097 11.4389 5.80805 
20.2933 11.5077 5.46395 
21.4469 10.0097 4.12847 
24.4039 9.88715 4.1174 
21.4274 10.1257 7.28609 
22.8602 8.6349 5.65943 
22.9942 11.3639 5.68235 
24.5054 9.95204 7.08485 
28.6396 8.5807 5.61308 
28.4334 11.3408 5.5409 
25.8494 8.60403 5.58611 
27.1609 10.0732 6.99622 
25.8965 11.4665 5.6275 
1.46347 13.0131 4.33085 
1.43764 15.7097 4.34674 
1.60383 12.8921 6.98476 
1.49136 15.8917 7.11605 
2.94523 14.5231 5.75386 
4.3605 13.0591 4.32016 
4.32725 15.8555 4.21935 
7.21248 12.8567 4.17092 
7.28863 15.8253 4.43438 
4.29038 15.6899 7.20396 
4.4072 12.9742 7.24347 
7.20096 12.9061 7.16768 
5.90996 14.2899 5.75972 
7.18655 15.7571 7.10325 
10.1031 12.9477 4.34739 
10.0187 15.7247 4.48705 
10.2035 12.9893 7.35423 
8.59812 14.272 5.61882 
9.90786 15.6441 7.18117 
11.3898 14.4838 5.87347 
12.7511 13.1236 4.44845 
15.8317 12.9298 4.31042 
12.8192 15.8534 4.4535 
15.9417 15.7762 4.34045 
13.0128 13.0193 7.47004 
15.8127 12.8108 7.26802 
12.9318 15.6375 7.19229 
14.5611 14.177 5.84894 
15.8969 15.7213 7.28652 
18.7072 12.9142 4.33928 
18.5847 15.7143 4.29395 
18.7186 12.8638 7.23761 
17.3117 14.1717 5.68106 
18.8037 15.5977 7.06351 
20.1962 14.3627 5.66972 
21.7691 12.9689 4.38835 
21.6134 15.8248 4.40604 
24.5405 13.0661 4.32964 
24.532 15.8432 4.50233 
21.639 12.8611 7.1094 
21.5367 15.9276 7.15515 
23.0525 14.399 5.66884 
24.3866 12.8684 7.19328 
24.3579 15.867 7.35027 
27.3984 13.0134 4.27859 
27.3327 15.7617 4.36606 
28.6499 14.3155 5.91438 
27.2739 12.9348 7.24144 
25.9314 14.3145 5.85553 
27.2702 15.8796 7.29219 
1.42306 18.8002 4.26719 
1.49777 18.8102 6.99886 
2.82726 17.3677 5.71749 
2.94528 20.199 5.71592 
0.0755177 20.0998 5.70673 
0.0803918 17.2796 5.6223 
4.23022 18.5882 4.27714 
7.35856 18.856 4.39967 
4.38154 18.6057 7.29372 
5.5924 17.3006 5.8384 
7.01776 18.5971 7.14883 
5.70728 20.0203 5.59668 
9.99247 18.6463 4.36603 
8.499 17.226 5.93586 
9.97683 18.7369 7.20268 
11.4383 17.2806 5.97678 
8.76556 20.1067 5.75836 
11.4558 20.0928 5.52091 
12.987 18.4255 4.55089 
16.0228 18.74 4.45786 
12.9078 18.5828 7.2289 
14.5918 17.0935 5.77263 
15.952 18.7289 7.3207 
14.4305 19.7682 5.82474 
18.6141 18.6645 4.38576 
17.4012 17.0753 5.78151 
18.8366 18.645 7.23356 
20.1835 17.2007 5.69697 
17.4753 20.1602 5.79181 
19.9816 19.9889 5.70804 
21.6427 18.7251 4.39778 
24.5613 18.9243 4.61234 
21.426 18.7576 7.32113 
23.0691 17.4748 5.73272 
23.1501 20.1739 5.81484 
24.3755 18.8124 7.10509 
26.9938 18.7816 4.29072 
26.0017 17.2048 5.73774 
27.3555 18.8084 7.08021 
25.9268 20.3398 5.95367 
1.24113 21.6697 4.20209 
1.63369 21.7276 7.10348 
2.80822 22.8479 5.42999 
1.39583 24.5585 7.13228 
0.0236861 22.9861 5.73234 
4.29206 21.4177 4.16932 
4.30277 24.4311 4.22881 
7.15937 21.618 4.26569 
7.28749 24.5089 4.23161 
4.36197 24.2877 7.0352 
4.33018 21.49 7.34984 
7.15508 21.5743 7.09624 
5.77284 22.7846 5.65156 
7.18532 24.3276 6.99862 
10.0691 21.4095 4.28046 
10.0003 21.6102 7.23162 
8.80477 23.0322 5.52364 
11.5154 22.9946 5.65183 
9.78899 24.4697 7.0001 
13.0608 21.4578 4.59281 
15.8517 21.4797 4.32899 
13.0501 24.5048 4.44393 
15.8219 24.3834 4.25128 
12.9253 21.5717 7.19302 
15.8194 21.3995 7.20476 
14.557 22.9652 5.84008 
15.8662 24.4756 7.2028 
12.8083 24.2762 7.10299 
18.6595 21.5963 4.50942 
18.8309 24.3308 4.44048 
18.5356 21.6132 7.38024 
17.2127 22.967 6.02208 
20.3039 23.0049 5.9625 
18.6897 24.4351 7.36141 
21.4471 21.2675 4.47763 
24.437 21.6258 4.21101 
24.4384 24.4287 4.31065 
21.4933 24.5188 4.41686 
21.6951 21.5455 7.2694 
23.0891 22.962 5.6749 
24.3397 21.638 7.30986 
21.5427 24.6082 7.18267 
24.2178 24.5844 7.08264 
27.1444 21.6642 4.43121 
27.25 24.5073 4.39103 
27.2194 21.7769 7.24952 
25.745 23.0586 5.76168 
27.1927 24.5817 7.11341 
1.71309 24.6689 4.18974 
1.49538 27.2097 4.2225 
2.9366 28.6862 5.55231 
1.3746 27.2926 7.14846 
3.08792 25.8301 5.6227 
4.42546 27.2103 4.17204 
7.29806 27.4244 4.20834 
5.65853 28.6049 5.66314 
4.34839 27.1535 7.02419 
5.83385 25.7807 5.70548 
7.15288 27.3248 7.05443 
10.0898 24.6549 4.20443 
10.0479 27.2761 4.256 
8.52706 26.0013 5.67822 
10.1077 27.5071 7.19579 
11.5905 25.8411 5.76266 
12.8898 27.3963 4.27004 
15.8544 27.3892 4.31196 
14.4606 28.5466 5.80979 
12.9906 27.3349 7.22008 
14.4453 25.9153 5.74986 
15.8785 27.4251 7.24603 
18.606 27.2403 4.53538 
17.0877 25.8295 5.66724 
18.6355 27.1093 7.19189 
20.0217 25.9217 5.76839 
21.4675 27.3023 4.2284 
24.1498 27.4385 4.10742 
21.68 27.4026 7.1611 
22.8148 26.0191 5.60501 
24.2638 27.3931 7.13871 
27.1812 27.3335 4.29854 
28.5142 25.9854 5.72629 
25.7222 25.9628 5.63205 
27.2014 27.3233 7.18226 
3.06266 2.82301 8.61028 
0.00857572 2.88166 8.56713 
1.37679 1.34088 10.0354 
2.72426 2.77267 11.5188 
0.122466 2.80728 11.4595 
5.8595 2.97379 8.6987 
4.27238 1.36579 10.1148 
7.24247 1.31789 10.0194 
5.76267 2.76119 11.4723 
8.5304 2.9038 8.53849 
11.436 2.72814 8.54137 
8.63973 0.044608 11.6729 
10.0443 1.45245 10.2569 
8.63223 2.78567 11.5045 
11.5221 2.85086 11.23 
14.3981 2.85118 8.35799 
12.9296 1.3798 10.1299 
15.6953 1.36816 10.0189 
14.4498 2.84475 11.4339 
17.3008 2.70482 8.61274 
20.2103 2.64724 8.65857 
20.1906 0.0386537 8.70026 
18.6998 1.20255 10.0502 
17.3044 2.57436 11.246 
19.925 2.90408 11.3415 
22.9168 2.85782 8.71768 
22.9168 0.249726 8.94509 
23.0563 0.0789322 11.6891 
21.445 1.45645 10.1769 
22.8579 2.8464 11.429 
24.541 1.39909 10.1345 
24.4652 4.08738 10.2109 
25.7668 2.9654 8.51792 
25.8342 0.000530351 8.45144 
26.1436 0.0276817 11.4436 
27.3788 1.47698 9.96053 
25.8987 2.91911 11.5239 
2.75512 5.6676 8.61208 
1.37918 4.39221 10.0645 
1.64915 7.32181 10.1874 
2.8418 5.68287 11.4661 
0.112503 5.6393 11.4888 
5.65878 5.85603 8.47313 
4.51998 4.42223 10.143 
4.3401 6.96366 10.0683 
7.16126 4.28235 10.0581 
7.25178 7.15403 9.9161 
5.72808 5.80756 11.5283 
8.71335 5.59607 8.76705 
11.434 5.69142 8.54301 
10.1825 4.16067 10.0689 
9.98903 7.30242 10.0955 
8.46136 5.69488 11.5096 
11.4875 5.46163 11.2567 
14.2749 5.81676 8.62498 
12.9033 4.25455 9.92686 
15.9865 4.26908 9.94667 
12.888 7.15126 9.93614 
15.806 7.15754 10.1617 
14.487 5.72456 11.5352 
17.1729 5.61964 8.6052 
20.1535 5.81357 8.7232 
18.7463 4.13749 9.92506 
18.7815 7.16602 10.1377 
17.3207 5.6762 11.4823 
20.1084 5.70119 11.5947 
23.1177 5.91711 8.74574 
21.5115 4.37185 9.956 
21.5109 7.11917 10.2287 
23.0081 5.74646 11.6007 
24.5378 7.3294 10.0766 
28.6695 5.83064 8.52061 
25.6494 5.66253 8.50366 
27.2434 4.4199 10.1962 
27.5249 7.2439 9.91596 
25.9611 6.04964 11.4879 
2.7623 8.62189 8.50542 
2.7888 11.466 8.63948 
0.0577071 11.5095 8.60022 
0.214039 8.79119 8.51568 
1.37427 10.1534 10.0753 
2.81334 8.6257 11.4801 
2.94193 11.4373 11.411 
0.0197543 11.6953 11.5752 
0.0291628 8.59765 11.5102 
5.91806 8.74119 8.62943 
5.64466 11.4167 8.66081 
4.16481 9.96868 10.0543 
7.25688 10.1529 10.1328 
5.6868 8.47345 11.3641 
5.61722 11.495 11.4222 
8.61396 8.61996 8.52134 
11.6027 8.62973 8.69402 
8.57207 11.4362 8.53026 
11.5326 11.6263 8.7809 
11.4632 8.77611 11.3071 
10.0345 10.0684 9.96307 
8.409 8.51684 11.505 
8.74433 11.6621 11.647 
11.5863 11.4624 11.3751 
14.431 8.48088 8.72704 
14.5891 11.6258 8.63886 
13.0991 10.1377 10.0732 
15.8387 10.1 10.144 
14.3844 8.51819 11.5384 
14.4765 11.4849 11.6479 
17.1753 8.64411 8.73822 
20.1499 8.64668 8.71411 
17.1709 11.4537 8.77669 
19.958 11.385 8.65635 
18.7711 9.91583 10.177 
17.3491 8.55673 11.6495 
20.151 8.57312 11.4735 
17.3484 11.3827 11.7602 
20.1792 11.6417 11.4447 
22.9816 8.50948 8.62602 
23.058 11.3723 8.51285 
21.597 10.1153 10.0379 
23.0671 8.59467 11.4159 
23.0181 11.4746 11.4319 
24.4322 10.0968 10.1547 
26.0338 8.92875 8.65429 
25.8704 11.4292 8.75786 
27.3224 10.1618 10.144 
25.8221 8.71187 11.6792 
25.8235 11.6378 11.5249 
2.62454 14.5065 8.52037 
1.59763 13.1367 10.0652 
1.44509 15.7707 10.0314 
2.88628 14.5397 11.4626 
5.673 14.3309 8.74803 
4.29877 12.9971 10.0204 
4.30898 15.7325 10.113 
7.12545 12.958 10.1002 
7.28059 15.7018 10.0667 
5.80636 14.2222 11.6126 
8.53421 14.3294 8.57065 
11.3608 14.4883 8.79677 
10.016 12.9748 10.0739 
9.97045 15.7823 10.0725 
8.48381 14.3766 11.7098 
11.481 14.3437 11.4825 
14.2378 14.3053 8.74203 
13.117 12.9482 10.1559 
15.9189 13.013 10.2427 
12.8705 15.8786 10.0349 
15.9977 15.8956 10.1112 
14.2404 14.5413 11.377 
17.3651 14.4442 8.55893 
20.0114 14.3416 8.4473 
18.8061 12.8677 10.1675 
18.7262 15.7515 10.0173 
17.2942 14.3164 11.4356 
20.1783 14.3143 11.5353 
23.0255 14.4216 8.58261 
21.4701 12.9904 10.0745 
21.5901 15.5485 10.0777 
23.0071 14.2957 11.5693 
24.3293 15.8173 10.0328 
24.3284 12.8427 9.97575 
28.5369 14.39 8.64609 
25.9505 14.308 8.57411 
28.7015 14.4293 11.5066 
27.4095 12.9671 10.052 
27.2779 15.9918 9.87484 
25.7845 14.4505 11.2831 
2.83743 17.2635 8.47955 
2.65415 20.0021 8.52677 
1.36468 18.5536 9.89804 
2.81358 17.3283 11.4102 
2.66158 20.0251 11.3131 
0.109939 20.1513 11.3665 
5.75394 17.091 8.69281 
5.54035 19.9765 8.71818 
4.23549 18.4011 9.9743 
7.17534 18.7032 10.1124 
5.78655 17.1073 11.5534 
5.685 20.0869 11.4853 
8.70063 17.2114 8.63121 
11.3919 17.2641 8.51883 
8.5684 19.9321 8.64876 
11.4763 20.208 8.5796 
10.193 18.5837 10.0863 
8.62859 17.3549 11.5982 
11.5424 17.2875 11.5313 
8.7106 20.1375 11.5064 
11.5406 20.1342 11.5032 
14.3203 17.3191 8.60576 
14.4591 20.0234 8.56579 
12.7613 18.636 10.1271 
15.9021 18.5645 10.0228 
14.4081 17.1192 11.5563 
14.5079 19.9652 11.2738 
17.4553 17.2083 8.55925 
20.2901 17.128 8.54958 
17.2595 20.0902 8.68281 
20.1404 20.2968 8.72972 
18.8186 18.6604 10.0372 
17.463 17.2556 11.4273 
20.0803 17.3824 11.5589 
17.0865 20.2389 11.3844 
20.1612 20.3061 11.6242 
22.9137 17.287 8.67533 
22.8805 20.1658 8.73587 
21.5927 18.8346 10.0616 
22.8901 17.3056 11.3883 
22.96 20.1511 11.5577 
24.3013 18.597 10.0483 
28.6861 20.0883 8.61819 
28.6688 17.223 8.38447 
25.9303 17.4731 8.58856 
25.8603 20.3388 8.51102 
28.6692 17.1677 11.3083 
27.1417 18.8893 10.0851 
25.7772 17.1477 11.4657 
25.7068 20.2354 11.461 
3.06427 23.153 8.42733 
0.0464369 22.9982 11.5115 
1.55442 24.2572 9.95124 
1.25621 21.6714 9.88525 
2.93639 22.9803 11.4133 
5.80434 22.9599 8.42222 
4.46799 24.4665 9.96828 
4.1742 21.4642 10.1823 
7.29698 24.3998 9.89056 
7.29692 21.5261 9.87062 
5.71787 22.798 11.6446 
8.60334 23.0105 8.46197 
11.4394 22.9265 8.5871 
8.58891 22.9254 11.4176 
10.0876 21.3524 10.0028 
10.0837 24.5564 9.80852 
11.3029 22.9188 11.4795 
14.302 22.9732 8.57131 
12.998 21.5206 9.82641 
15.7027 21.628 10.1234 
14.2359 22.9584 11.5276 
12.8623 24.4998 9.99438 
15.5849 24.4733 10.1023 
17.2307 22.8911 8.82789 
20.1332 23.0718 8.73577 
20.016 23.1666 11.4865 
16.9855 23.1059 11.5508 
18.5548 24.4937 10.0711 
18.665 21.696 10.1085 
22.9581 22.9915 8.58315 
21.7267 21.7637 10.1352 
24.3023 24.4161 9.8963 
24.4773 21.7007 10.1119 
21.5829 24.4745 10.271 
23.0982 22.9315 11.6712 
28.5895 22.9315 8.62007 
25.6872 23.0169 8.48339 
25.8099 23.0107 11.5267 
27.2181 21.5774 10.0644 
2.97292 28.5562 8.58398 
0.107435 28.6642 8.66156 
2.95906 25.7522 8.53218 
0.116566 25.8315 8.4785 
0.0443495 28.6641 11.557 
1.39514 27.2909 10.0015 
0.0877587 25.7029 11.3701 
2.95736 28.6694 11.7429 
2.89649 26.0275 11.4704 
5.77818 28.631 8.52552 
5.83369 25.8985 8.45193 
5.73582 28.6396 11.3953 
4.56816 27.0681 9.92187 
6.03729 25.6449 11.509 
7.15381 27.2656 10.052 
11.4925 28.4743 8.75887 
8.72349 28.6966 8.6987 
8.65127 26.0255 8.53045 
11.3344 25.927 8.46757 
9.94307 27.2063 10.2223 
8.5938 25.626 11.4671 
11.4892 25.8367 11.2912 
11.3611 28.545 11.586 
14.403 28.7008 8.73297 
14.281 25.8934 8.45178 
15.7831 27.3905 10.1202 
14.2607 25.7204 11.6448 
13.0806 27.3569 10.1611 
14.2943 28.4527 11.7438 
17.2792 28.6135 8.79969 
17.0961 25.843 8.6777 
20.159 25.9871 8.69772 
17.2018 28.5088 11.5159 
19.8736 28.5124 11.4503 
17.2396 25.722 11.7211 
20.0668 25.8708 11.5854 
18.4613 27.2288 10.0827 
22.7593 26.0535 8.73167 
24.5747 27.4749 9.91439 
23.1076 25.9605 11.3467 
21.5589 27.3881 10.3218 
25.6166 25.7979 8.45067 
25.9991 25.631 11.4533 
27.3238 27.3259 10.0305 
27.2191 24.6804 9.9526 
1.60056 1.32886 13.1442 
0.0753745 0.0561261 14.2834 
1.45557 1.45768 15.9907 
0.122049 3.00231 14.3664 
3.06677 2.71943 14.3683 
4.50346 1.19833 12.9495 
7.30704 1.4591 12.9994 
4.39157 1.44474 16.0065 
6.93424 1.30107 16.0173 
5.89545 2.97754 14.3708 
10.2017 1.48803 12.9809 
9.98752 1.2897 15.8739 
8.67975 0.108257 14.3921 
8.69652 2.93772 14.4896 
11.3439 2.94415 14.4573 
11.4484 0.0416177 14.5024 
12.7683 1.52871 12.7618 
15.6373 1.38979 12.8732 
14.0343 0.109185 14.1585 
14.2704 2.82921 14.2229 
12.7563 1.4392 15.9604 
15.7814 1.38546 15.8139 
19.9516 0.0694898 14.322 
18.4856 1.24282 12.8746 
17.0802 2.77094 14.2687 
20.0024 2.69034 14.151 
18.6917 1.44798 15.8518 
18.5961 4.07526 15.7937 
17.0512 0.0110424 14.4509 
21.2321 1.54185 12.6754 
24.5498 1.53882 12.8332 
22.9753 2.99723 14.2122 
21.2868 1.83866 15.9065 
24.4844 1.48346 15.6973 
22.4148 0.805509 14.4261 
27.5064 1.48041 12.9093 
26.0093 2.83677 14.28 
26.0273 0.151555 14.2869 
27.3262 1.60293 15.8009 
1.58084 4.25306 12.8647 
1.43161 7.09758 12.8814 
2.97902 5.69946 14.3341 
1.5936 4.22963 15.6316 
1.46145 7.25552 15.6397 
4.44147 4.18782 12.9629 
7.37758 4.31503 12.9302 
4.34105 6.94755 12.8417 
7.09627 7.17009 12.9035 
5.86189 5.71094 14.2123 
4.3543 4.46529 15.753 
4.39705 7.3131 15.7525 
7.05163 4.18239 15.8255 
7.41701 7.25399 15.6422 
10.0784 4.40901 12.8286 
10.1163 7.21645 12.9352 
11.4573 5.66835 14.2688 
8.69587 5.83563 14.3363 
10.016 4.37284 15.8215 
10.0738 7.13791 15.6471 
12.7303 4.26514 12.7915 
15.9038 4.2082 12.7982 
12.8573 7.11242 12.6899 
15.7435 6.98801 12.9445 
14.234 5.43282 14.2623 
15.6915 4.17536 15.8082 
12.8794 4.29179 15.8881 
12.9975 7.06549 15.7114 
15.8655 7.12723 15.7403 
18.5015 4.29597 12.8636 
18.6915 7.05126 13.0151 
20.0677 5.69097 14.3234 
18.5433 7.19188 15.7178 
17.3089 5.60863 14.4081 
21.4917 4.27729 12.9186 
24.4704 4.36718 12.8043 
21.4904 7.22968 12.9601 
24.3963 7.45151 13.0523 
23.0671 5.83024 14.3406 
21.571 4.35578 15.7607 
21.4279 7.12178 15.8858 
27.1805 4.43508 12.9175 
27.2755 7.25672 12.8782 
25.7715 5.86917 14.3315 
28.5896 5.80782 14.339 
24.6133 7.31072 15.7906 
24.6664 4.27755 15.6471 
27.2258 4.24765 15.7066 
27.1699 6.98738 15.667 
1.45122 9.99628 12.9591 
2.92595 8.5183 14.3278 
0.145737 11.4381 14.3505 
1.3951 9.90794 15.7847 
2.88344 11.5412 14.3754 
0.00245624 8.58371 14.3667 
4.21936 9.88168 13.0124 
7.09039 10.1431 12.8614 
5.73138 11.5222 14.2344 
4.40244 10.0895 15.7244 
7.23935 10.0349 15.7981 
5.79576 8.63286 14.4849 
10.1492 10.0501 12.8187 
11.5502 8.60614 14.2996 
8.66368 8.71414 14.1729 
8.65555 11.379 14.2366 
9.94528 10.1382 15.8482 
11.6901 11.5611 14.48 
12.8732 10.0269 12.8673 
15.7415 9.92453 12.9186 
12.8957 10.0491 15.8492 
15.8088 10.2659 15.9454 
14.3577 11.3093 14.4533 
14.2596 8.61014 14.49 
17.1382 8.64235 14.2689 
18.7623 9.99564 13.125 
18.629 10.1196 15.8715 
17.3051 11.4506 14.4184 
20.1829 11.502 14.4101 
20.1549 8.58688 14.3811 
21.736 10.1129 12.9328 
24.3297 10.1318 12.916 
21.5433 9.98866 15.816 
24.3415 10.0689 15.7727 
22.7733 8.61628 14.5666 
23.1033 11.4922 14.4732 
27.2384 10.1815 12.9909 
25.8977 11.8052 14.3355 
27.3231 9.96364 15.6783 
25.9808 8.66918 14.4238 
1.39873 13.0567 12.8826 
1.59336 15.7173 12.9685 
1.36799 13.021 15.9049 
1.50618 15.7787 15.8218 
0.221618 14.2546 14.513 
2.80374 14.1927 14.5072 
4.17058 12.9335 12.8715 
4.38566 15.6801 12.9909 
6.97795 12.9013 12.8495 
7.25727 15.8393 13.2617 
4.48003 15.7412 15.7876 
4.24222 12.9672 15.8415 
7.40569 12.814 15.8938 
7.19333 15.7327 15.8288 
5.69172 14.299 14.3865 
10.249 13.0905 12.9521 
10.1816 15.9005 13.0042 
8.59351 14.0544 14.2865 
10.1801 12.9173 15.7427 
10.1168 15.7226 15.6406 
11.8212 14.2713 14.4547 
13.0176 12.8463 12.9478 
15.8153 13.0122 12.7068 
13.0658 15.8258 12.9244 
15.8923 15.6784 12.9401 
14.3664 14.3617 14.2206 
13.0365 12.8199 15.809 
15.9188 13.0844 15.7788 
13.0671 15.5806 15.8381 
15.7197 15.7346 15.7724 
18.7405 12.9959 12.993 
18.6763 15.7908 12.9777 
18.6636 12.8773 15.7216 
18.5609 15.7722 15.7582 
17.3712 14.3082 14.4572 
20.0518 14.4234 14.4442 
21.7001 12.9884 13.0968 
21.5242 15.9193 12.9358 
24.3174 15.7245 12.8445 
24.2845 12.9035 12.9275 
21.5904 13.0035 15.7431 
21.519 15.867 15.758 
24.3975 15.7356 15.8015 
24.3063 12.8449 15.7416 
23.0454 14.408 14.4154 
27.2437 13.1684 12.9436 
27.2892 15.783 13.0547 
25.7806 14.2882 14.3173 
27.3042 12.942 15.7859 
27.265 15.608 15.5682 
1.48025 18.6573 12.8163 
1.16145 18.6351 15.7653 
2.81352 20.0463 14.4153 
2.80006 17.2259 14.3955 
4.19042 18.6762 12.8961 
7.21127 18.6688 12.8555 
5.78846 19.8981 14.2426 
5.74341 17.2049 14.3585 
4.36618 18.5822 15.9367 
7.1891 18.5285 15.8295 
10.1311 18.5861 13.0485 
11.4646 20.1218 14.307 
8.742 17.2116 14.5413 
8.59279 20.0252 14.397 
10.1037 18.6403 15.873 
11.5545 17.2853 14.4982 
13.0441 18.6545 12.9292 
15.6984 18.6804 12.8229 
14.3501 17.1779 14.2978 
14.5198 20.2829 14.3823 
13.0361 18.7477 15.6467 
15.8457 18.7219 15.7638 
18.5385 18.8414 12.9638 
17.1399 20.1609 14.3058 
19.9323 20.0993 14.3468 
20.0713 17.2999 14.2634 
18.5457 18.5407 15.7904 
17.1627 17.1424 14.3848 
21.4404 18.7061 12.8861 
24.3297 18.5498 13.0253 
22.9197 17.2493 14.3413 
21.3207 18.8426 15.9368 
24.3052 18.7968 15.8496 
22.8083 20.0514 14.4383 
25.714 20.0144 14.318 
27.1165 18.7819 12.7133 
28.6453 17.3782 14.2403 
28.6402 20.1373 14.2742 
27.1281 18.7273 15.6624 
25.6559 17.2644 14.4185 
2.83661 22.8813 14.2283 
1.28725 21.5971 12.9394 
1.53369 24.3894 12.9131 
4.0357 21.3642 12.9119 
1.43303 21.5322 15.7047 
1.42193 24.4374 15.9259 
7.21941 24.1281 13.1124 
4.2686 24.4135 12.8324 
7.11018 21.3935 12.9785 
4.32968 21.5167 15.8005 
7.17541 21.6141 15.7384 
4.32668 24.3185 15.6705 
7.35161 24.1681 15.9172 
5.60177 22.7499 14.4215 
9.91654 21.3431 12.9723 
9.97238 24.3541 12.8231 
11.4118 23.0105 14.2198 
8.68799 22.9106 14.3521 
10.006 21.4912 15.8731 
10.0902 24.2894 15.8438 
15.6517 21.5451 12.8714 
12.9815 21.3971 12.811 
15.7139 24.2974 13.0163 
12.8682 24.2056 12.9052 
14.184 22.8559 14.2512 
12.8543 21.6229 15.6312 
15.7322 21.7079 15.8941 
12.7632 24.1921 15.8802 
15.8915 24.3496 15.9182 
18.6378 21.693 12.946 
18.6517 24.3758 12.9245 
17.1602 22.9683 14.3098 
18.76 21.7498 15.8041 
18.6833 24.4914 15.6927 
20.2414 23.0843 14.3619 
23.0285 22.8201 14.3509 
24.5696 24.3633 12.9193 
24.4378 21.5336 13.0365 
21.5517 24.5083 12.8495 
21.522 21.6168 12.8905 
21.5073 21.6876 15.8363 
24.278 21.6937 15.9182 
24.391 24.2822 15.663 
27.2719 21.5051 12.7697 
27.4368 24.3591 12.9377 
25.998 23.0161 14.2753 
27.0809 21.3647 15.6995 
27.1438 24.3826 15.9179 
28.5498 22.8862 14.4983 
1.45324 27.138 12.9806 
1.45439 27.2709 15.7497 
3.0856 28.6745 14.4163 
2.88508 25.7318 14.4238 
4.33519 27.1011 12.8411 
7.28334 27.2841 13.0473 
5.76801 25.7006 14.2888 
4.31373 27.133 15.8764 
7.24145 27.1277 15.7459 
5.72043 28.5658 14.5895 
8.7161 25.6075 14.3258 
11.5466 25.7553 14.3086 
9.99094 27.2604 13.0968 
9.94541 27.0937 15.6975 
12.6587 27.175 12.9551 
15.6145 27.2067 13.1658 
13.0066 27.2385 15.5056 
15.7433 27.2666 15.9076 
14.4047 25.5431 14.4353 
18.6535 27.2911 13.0855 
18.6841 27.1728 15.7658 
16.9824 25.9233 14.4827 
20.219 25.9717 14.4173 
23.9042 28.0487 14.1474 
21.6375 27.4823 13.1326 
23.2599 25.7646 14.3425 
21.6678 24.6359 15.7206 
21.5521 27.5712 15.7411 
24.5462 27.1778 16.0567 
27.3402 27.1882 13.0922 
24.8064 27.3083 12.472 
27.2541 27.4441 15.764 
25.9552 25.8977 14.3683 
28.6721 25.6838 14.5478 
1.59261 1.47118 18.4907 
2.94203 3.08603 17.1698 
0.00853883 3.02109 17.2479 
2.93613 2.8788 20.196 
2.90939 0.130085 20.156 
4.36214 1.47926 18.8427 
7.15365 1.4315 18.8033 
5.67603 3.07129 17.3712 
5.70248 2.84218 20.2046 
5.53279 0.0679346 20.1303 
10.168 1.39066 18.7672 
8.54796 2.68781 17.1663 
11.4938 2.67741 17.3074 
8.71756 2.84104 20.0482 
11.716 2.92871 20.0452 
8.57065 0.024706 20.0678 
12.8295 1.28978 18.6378 
15.8853 1.36978 18.7422 
14.3559 2.66696 17.3803 
14.1998 2.88658 20.1358 
18.5089 1.53125 18.8195 
17.1328 2.8854 17.2882 
20.1364 3.02238 17.4062 
17.1914 0.0293187 17.134 
19.9295 0.0296996 17.19 
17.0401 2.97893 20.0971 
20.1813 3.01991 20.1241 
20.164 0.0545581 19.8918 
21.494 1.31969 18.4954 
23.1191 2.96903 17.1927 
24.5557 1.40684 18.6498 
22.9974 0.193004 17.0823 
23.0642 2.93415 20.0694 
22.9474 0.0710067 20.0418 
27.2875 1.62471 18.6195 
25.7276 2.93558 17.2751 
28.6801 3.00418 20.0777 
25.8072 3.06749 20.0141 
1.67531 4.41789 18.7255 
1.42286 7.27188 18.5585 
2.81327 5.85082 17.2841 
2.92907 5.81275 20.1368 
0.0922151 5.8128 20.0182 
7.09573 4.32349 18.7773 
4.39364 4.4526 18.6588 
4.32312 7.27648 18.7728 
5.72324 5.93669 17.2683 
7.24488 7.15871 18.6498 
5.74667 5.77928 20.0749 
9.93696 4.33479 18.5783 
8.30494 5.77835 17.127 
10.0601 7.09093 18.7493 
11.3892 5.8412 17.2673 
8.55404 5.80603 20.1313 
11.6015 5.75326 20.0476 
15.5666 4.34197 18.6819 
12.8996 4.3222 18.5245 
12.9292 7.29082 18.5604 
14.2306 5.62028 17.2153 
15.7461 7.15501 18.539 
14.2062 5.63496 20.1054 
18.2562 4.42803 18.7323 
16.9927 5.77592 17.1214 
18.6296 7.15242 18.5396 
19.9952 5.58871 16.9797 
17.0494 5.69632 20.1472 
19.9873 5.73436 19.9416 
21.6262 4.37548 18.6847 