ITEM: TIMESTEP
99043
ITEM: NUMBER OF ATOMS
18
ITEM: BOX BOUNDS pp pp pp
0.0000000000000000e+00 2.8712000000000000e+01
0.0000000000000000e+00 2.8712000000000000e+01
0.0000000000000000e+00 2.8712000000000000e+01
ITEM: ATOMS x y z c_cna 
22.966 0.00769794 11.508 5 
19.9916 0.0122759 14.3422 5 
20.1456 2.82796 14.3422 5 
21.3799 1.59374 12.5045 5 
24.3648 1.40644 12.9198 5 
21.3799 1.59372 16.1797 5 
24.3647 1.40644 15.7646 5 
22.2168 0.756657 14.3423 5 
22.9613 2.98195 14.3422 5 
25.9404 0.00309422 14.3422 5 
22.9707 25.7453 14.3422 5 
21.5673 27.3209 12.9198 5 
21.5672 27.3209 15.7645 5 
24.5521 27.1336 16.1799 5 
23.7151 27.9707 14.3422 5 
24.5522 27.1336 12.5045 5 
25.7864 25.8994 14.3422 5 
22.9659 0.00768237 17.1763 5 
ITEM: TIMESTEP
99044
ITEM: NUMBER OF ATOMS
18
ITEM: BOX BOUNDS pp pp pp
0.0000000000000000e+00 2.8712000000000000e+01
0.0000000000000000e+00 2.8712000000000000e+01
0.0000000000000000e+00 2.8712000000000000e+01
ITEM: ATOMS x y z c_cna 
22.966 0.00769794 11.508 5 
19.9916 0.0122759 14.3422 5 
20.1456 2.82796 14.3422 5 
21.3799 1.59374 12.5045 5 
24.3648 1.40644 12.9198 5 
21.3799 1.59372 16.1797 5 
24.3647 1.40644 15.7646 5 
22.2168 0.756657 14.3423 5 
22.9613 2.98195 14.3422 5 
25.9404 0.00309422 14.3422 5 
22.9707 25.7453 14.3422 5 
21.5673 27.3209 12.9198 5 
21.5672 27.3209 15.7645 5 
24.5521 27.1336 16.1799 5 
23.7151 27.9707 14.3422 5 
24.5522 27.1336 12.5045 5 
25.7864 25.8994 14.3422 5 
22.9659 0.00768237 17.1763 5 
