ITEM: TIMESTEP
9043
ITEM: NUMBER OF ATOMS
2001
ITEM: BOX BOUNDS pp pp pp
0.0000000000000000e+00 2.8712000000000000e+01
0.0000000000000000e+00 2.8712000000000000e+01
0.0000000000000000e+00 2.8712000000000000e+01
ITEM: ATOMS x y z c_cna 
1.43576 1.43561 1.43468 3 
2.87031 2.87011 2.8702 3 
2.87099 0.000104011 2.87018 3 
0.00037156 2.87095 2.87019 3 
0.00109423 0.000951276 2.87021 3 
4.30565 1.43469 1.43454 3 
7.17591 1.43425 1.43471 3 
5.74032 2.86929 2.87021 3 
10.0469 1.43432 1.43496 3 
8.61106 2.86902 2.87022 3 
11.4826 2.86924 2.87027 3 
12.9186 1.43472 1.43516 3 
15.7905 1.43526 1.43528 3 
14.3545 2.8697 2.87032 3 
14.3545 9.32715e-05 2.87035 3 
14.3544 0.000320599 0.000285225 3 
18.6626 1.43581 1.43533 3 
17.2266 2.87028 2.87032 3 
20.0987 2.87082 2.8703 3 
20.0987 0.00104353 2.87033 3 
17.2266 0.000584371 2.87037 3 
17.2264 0.00089116 0.000524822 3 
20.0986 0.00142569 0.000636033 3 
21.5346 1.43626 1.43528 3 
24.4063 1.43652 1.43516 3 
22.9705 2.8712 2.87027 3 
22.9707 0.00138452 2.87026 3 
22.9708 0.00180594 0.000611271 3 
27.2775 1.43632 1.43495 3 
25.8418 2.87132 2.87024 3 
25.8423 0.0014208 2.87024 3 
25.8425 0.00180696 0.000345003 3 
1.43502 4.30551 1.43455 3 
1.43469 7.17582 1.43468 3 
2.86966 5.74017 2.87018 3 
4.30484 4.30455 1.43469 3 
7.1752 4.30389 1.43495 3 
4.3043 7.17502 1.43492 3 
7.17446 7.17414 1.43544 3 
5.73956 5.73927 2.87018 3 
10.0465 4.30377 1.43517 3 
10.0459 7.17386 1.43574 3 
8.61046 5.73882 2.87021 3 
11.4823 5.73893 2.87022 3 
8.61023 5.73841 0.000429503 3 
11.4821 5.73846 0.000696403 3 
12.9185 4.30411 1.43531 3 
15.7906 4.30464 1.43531 3 
12.9181 7.17416 1.43577 3 
15.7905 7.17468 1.43568 3 
14.3545 5.73938 2.87026 3 
14.3544 5.73893 0.000684544 3 
18.6627 4.30523 1.43524 3 
18.6627 7.17528 1.43559 3 
17.2267 5.73995 2.87027 3 
20.0987 5.74052 2.87029 3 
17.2267 5.73956 0.000506068 3 
20.0988 5.74018 0.000266777 3 
21.5346 4.30577 1.43512 3 
24.406 4.30612 1.43494 3 
21.5346 7.17581 1.4354 3 
22.9704 5.74099 2.8703 3 
24.406 7.17621 1.43511 3 
28.7118 5.74092 2.8702 3 
27.2769 4.30608 1.43468 3 
27.2766 7.17624 1.43479 3 
25.8415 5.74115 2.87024 3 
1.43484 10.0468 1.43487 3 
2.86951 8.61099 2.87017 3 
2.86974 11.4825 2.87015 3 
0.0001145 11.4826 2.87019 3 
4.30427 10.0464 1.43509 3 
7.17424 10.0457 1.43568 3 
5.7392 8.61029 2.87017 3 
5.73937 11.4822 2.87015 3 
5.73892 11.482 0.000619029 3 
5.73884 8.60996 0.000392952 3 
10.0455 10.0453 1.43604 3 
8.60994 8.60971 2.87016 3 
11.4819 8.60971 2.87021 3 
8.60998 11.4818 2.87016 3 
11.4817 11.4816 2.8702 3 
11.4808 11.4807 0.00210868 3 
8.60907 11.4812 0.00181294 3 
8.60919 8.60889 0.00153483 3 
11.4813 8.60873 0.00184276 3 
12.9178 10.0455 1.43601 3 
15.7903 10.046 1.43584 3 
14.3542 8.61014 2.87022 3 
14.354 11.4819 2.87022 3 
14.3537 11.481 0.001632 3 
14.3541 8.60923 0.00164559 3 
18.6625 10.0465 1.43573 3 
17.2265 8.61067 2.87025 3 
20.0986 8.61117 2.87029 3 
17.2262 11.4823 2.87028 3 
20.0982 11.4827 2.8703 3 
20.0986 11.4821 0.00119507 3 
20.0989 8.61054 0.000982591 3 
17.2263 11.4816 0.00131396 3 
17.2267 8.60988 0.00134207 3 
21.5344 10.0469 1.43559 3 
24.4059 10.0471 1.43533 3 
22.9703 8.61155 2.87028 3 
22.9701 11.4828 2.87026 3 
22.9703 11.4825 0.000830722 3 
22.9705 8.61113 0.000468743 3 
28.7118 8.61143 2.8702 3 
27.2768 10.047 1.43503 3 
25.8414 8.61167 2.87025 3 
25.8415 11.4827 2.87021 3 
25.8418 11.4823 0.000419669 3 
1.43523 12.9184 1.43502 3 
1.43564 15.7902 1.43511 3 
2.87016 14.3544 2.87018 3 
0.000482094 14.3542 2.87021 3 
0.000723719 14.3541 0.00013427 3 
4.30462 12.9184 1.43516 3 
7.17451 12.9181 1.4357 3 
4.30502 15.7905 1.43518 3 
7.17499 15.7906 1.43561 3 
5.73977 14.3545 2.87017 3 
5.73937 14.3544 0.000536065 3 
10.0457 12.9178 1.43595 3 
10.0462 15.7903 1.4358 3 
8.61039 14.3543 2.87017 3 
11.482 14.354 2.87021 3 
8.60954 14.3541 0.00157656 3 
11.4812 14.3536 0.00160604 3 
12.9177 12.9177 1.43578 3 
15.79 12.918 1.43558 3 
12.9181 15.79 1.43558 3 
15.7902 15.7901 1.43533 3 
14.3541 14.354 2.87025 3 
14.3536 14.3535 0.0009201 3 
18.6622 12.9184 1.43558 3 
18.6622 15.7904 1.43538 3 
17.2261 14.3543 2.87028 3 
20.0981 14.3545 2.87029 3 
20.0983 14.3543 0.000921933 3 
17.226 14.354 0.000649568 3 
21.5342 12.9185 1.43562 3 
24.4061 12.9184 1.43555 3 
21.5343 15.7904 1.43555 3 
24.4063 15.7901 1.43567 3 
22.9702 14.3544 2.87026 3 
22.9706 14.354 0.00113611 3 
27.2772 12.9183 1.43528 3 
27.2776 15.7901 1.43544 3 
25.8418 14.3542 2.8702 3 
25.8423 14.3539 0.000876757 3 
1.43603 18.6623 1.43516 3 
2.87054 17.2264 2.8702 3 
2.87094 20.0984 2.87021 3 
0.000886442 17.2261 2.8702 3 
0.00124603 20.0982 2.8702 3 
0.00118445 17.2261 0.000328166 3 
0.0016083 20.0983 0.000484398 3 
4.30546 18.6626 1.43513 3 
7.17549 18.6628 1.4355 3 
5.7402 17.2267 2.87021 3 
5.74062 20.0986 2.87023 3 
5.74035 20.0987 0.000159972 3 
5.73985 17.2268 0.000389685 3 
10.0467 18.6626 1.4357 3 
8.61087 17.2266 2.87024 3 
11.4825 17.2263 2.87025 3 
8.61128 20.0986 2.87025 3 
11.4829 20.0983 2.87031 3 
11.4818 17.2264 0.00127524 3 
8.61076 20.0989 0.000917101 3 
8.61018 17.2268 0.0012646 3 
11.4824 20.0986 0.0011787 3 
12.9186 18.6622 1.4356 3 
15.7906 18.6621 1.43541 3 
14.3545 17.2261 2.8703 3 
14.3548 20.098 2.87034 3 
14.3546 20.0982 0.00096998 3 
14.3542 17.226 0.00069555 3 
18.6626 18.6624 1.43533 3 
17.2264 17.2262 2.87031 3 
20.0984 17.2264 2.87028 3 
17.2268 20.0981 2.87035 3 
20.0988 20.0984 2.87028 3 
17.2264 17.2262 0.000353056 3 
20.0992 20.0989 0.000886246 3 
20.0987 17.2264 0.000638074 3 
17.2268 20.0985 0.000695446 3 
21.5347 18.6624 1.43553 3 
24.4067 18.6622 1.43577 3 
22.9704 17.2263 2.87026 3 
22.9708 20.0984 2.87026 3 
22.9716 20.0988 0.0015391 3 
22.971 17.2262 0.00123397 3 
27.278 18.6621 1.43557 3 
25.8421 17.2261 2.87021 3 
25.8425 20.0983 2.87021 3 
25.8433 20.0984 0.00148476 3 
25.8428 17.2259 0.00118627 3 
1.43637 21.5343 1.43516 3 
1.4365 24.4061 1.4351 3 
2.8712 22.9702 2.8702 3 
0.00150733 22.9703 2.87021 3 
0.00190486 22.9705 0.000521324 3 
4.30582 21.5344 1.43503 3 
7.1759 21.5345 1.43534 3 
5.74094 22.9702 2.87025 3 
4.30606 24.4058 1.43488 3 
7.17619 24.4057 1.43509 3 
10.047 21.5344 1.43559 3 
8.61157 22.9701 2.8703 3 
11.483 22.97 2.87032 3 
8.61129 22.9704 0.000456164 3 
10.0472 24.4057 1.43538 3 
11.4828 22.9702 0.000861055 3 
12.9189 21.5341 1.43567 3 
15.7908 21.5342 1.43565 3 
15.7906 24.4061 1.4358 3 
14.3548 22.9699 2.87037 3 
12.9187 24.4058 1.43564 3 
14.3545 22.9705 0.00122041 3 
18.6629 21.5344 1.43561 3 
18.6627 24.4064 1.43588 3 
17.2268 22.9701 2.87038 3 
20.0989 22.9704 2.87032 3 
17.2266 22.9708 0.00133057 3 
20.0992 22.9713 0.00157232 3 
21.5351 21.5347 1.43577 3 
24.4071 21.5346 1.43593 3 
21.5351 24.4068 1.43595 3 
22.9711 22.9707 2.87024 3 
24.4073 24.407 1.436 3 
22.972 22.9716 0.00197937 3 
27.2783 21.5344 1.43568 3 
27.2785 24.4066 1.43566 3 
25.8428 22.9705 2.87025 3 
25.8437 22.9711 0.00169136 3 
1.43635 27.2773 1.43492 3 
2.87125 25.8415 2.87021 3 
0.00184451 25.8423 0.000309324 3 
0.0014809 25.842 2.87021 3 
5.74094 28.7114 2.8702 3 
4.30606 27.2766 1.43468 3 
7.17629 27.2763 1.43481 3 
5.74109 25.8412 2.87025 3 
8.61149 28.7113 2.87026 3 
11.4828 28.7116 2.87031 3 
10.0471 27.2764 1.43514 3 
8.61169 25.8411 2.8703 3 
11.4829 25.8412 2.87033 3 
11.4826 25.8415 0.000468694 3 
12.9186 27.2768 1.43543 3 
15.7905 27.2772 1.43564 3 
14.3546 25.8415 2.87035 3 
14.3543 25.842 0.0010236 3 
18.6626 27.2777 1.43573 3 
17.2266 25.8418 2.87036 3 
20.0988 25.8422 2.8703 3 
20.0989 25.8431 0.00158876 3 
17.2264 25.8425 0.00135113 3 
21.5348 27.2781 1.43575 3 
22.971 25.8425 2.87021 3 
24.4069 27.2784 1.43569 3 
22.9715 25.8435 0.00173491 3 
27.2782 27.2781 1.43543 3 
25.8428 25.8425 2.87021 3 
25.8435 25.8433 0.00144055 3 
1.4358 1.43565 4.30574 3 
1.4358 1.43564 7.17714 3 
2.87033 2.87014 5.74157 3 
0.00134713 0.00116854 5.74073 3 
0.000400229 2.87101 5.7414 3 
2.87105 0.000120253 5.74138 3 
4.30564 1.43474 4.30583 3 
7.17588 1.43426 4.30574 3 
4.30575 1.4347 7.17733 3 
7.176 1.43428 7.17705 3 
5.74035 2.8693 5.74136 3 
10.0469 1.43437 4.30557 3 
10.047 1.43449 7.17657 3 
8.61106 2.86903 5.74099 3 
11.4825 2.86929 5.74077 3 
12.9185 1.43479 4.30546 3 
15.7905 1.43533 4.30539 3 
12.9185 1.43498 7.17619 3 
15.7905 1.43555 7.17592 3 
14.3545 2.8698 5.74065 3 
14.3543 0.000430666 5.74035 3 
18.6626 1.43587 4.30531 3 
18.6626 1.43608 7.17583 3 
17.2267 2.87038 5.74064 3 
20.0987 2.87087 5.74067 3 
17.2265 0.00101336 5.74014 3 
20.0987 0.00152857 5.73992 3 
21.5347 1.43632 4.3053 3 
24.4064 1.43654 4.30533 3 
21.5348 1.43657 7.17578 3 
24.4066 1.43681 7.17598 3 
22.9705 2.87129 5.7408 3 
22.9709 0.00186536 5.73988 3 
27.2775 1.43635 4.30548 3 
27.2777 1.43652 7.17646 3 
25.8418 2.87139 5.74104 3 
25.8427 0.00182508 5.74009 3 
1.43504 4.30555 4.30585 3 
1.43472 7.17584 4.30569 3 
1.43502 4.30564 7.17733 3 
1.4347 7.17596 7.17703 3 
2.86965 5.74022 5.74134 3 
7.17521 4.30391 4.30542 3 
4.30483 4.3046 4.30571 3 
4.3043 7.17503 4.3054 3 
7.17441 7.17417 4.30492 3 
4.30418 7.17494 7.17635 3 
4.30491 4.30465 7.17709 3 
7.1751 4.30379 7.17637 3 
5.73935 5.73909 5.74062 3 
7.17356 7.17333 7.17472 3 
10.0465 4.30382 4.30527 3 
10.0459 7.17389 4.30467 3 
10.0464 4.30367 7.17585 3 
8.61012 5.73846 5.73998 3 
10.0449 7.17265 7.17372 3 
11.4821 5.73855 5.73977 3 
12.9184 4.30417 4.30525 3 
15.7906 4.30472 4.30527 3 
12.9181 7.17418 4.30468 3 
15.7905 7.17473 4.30479 3 
12.9184 4.30408 7.1757 3 
15.7906 4.30467 7.17576 3 
12.9177 7.17299 7.17367 3 
14.3544 5.73905 5.73981 3 
15.7906 7.17373 7.17401 3 
18.6628 4.30531 4.30534 3 
18.6628 7.17534 4.30498 3 
18.6628 4.30526 7.17591 3 
17.2268 5.73969 5.74002 3 
18.6631 7.17451 7.17453 3 
20.0989 5.74031 5.74027 3 
21.5347 4.30582 4.30545 3 
24.4062 4.30614 4.30557 3 
21.5347 7.17588 4.3052 3 
24.4061 4.30617 7.17658 3 
21.5347 4.30581 7.17617 3 
21.5352 7.17528 7.17518 3 
22.9706 5.74087 5.74065 3 
24.4061 7.17626 4.30542 3 
24.4063 7.176 7.17606 3 
27.2769 4.30612 4.30573 3 
27.2767 7.1763 4.30568 3 
28.7118 5.74101 5.74145 3 
27.2769 4.30619 7.17705 3 
25.8416 5.74117 5.7411 3 
27.2767 7.17638 7.17686 3 
1.43489 10.0468 4.3055 3 
1.43496 10.0469 7.17656 3 
2.86949 8.61097 5.74097 3 
2.86975 11.4825 5.7407 3 
0.000340474 11.4825 5.74063 3 
4.30428 10.0464 4.30522 3 
7.17421 10.0458 4.30463 3 
4.3041 10.0463 7.17585 3 
5.7388 8.60999 5.73998 3 
7.17292 10.0448 7.17373 3 
5.73892 11.482 5.73974 3 
10.0454 10.0453 4.30431 3 
8.60912 8.60892 5.73882 3 
10.0433 10.0432 7.17188 3 
11.4812 8.60879 5.73856 3 
8.60903 11.4812 5.73855 3 
11.4808 11.4807 5.7383 3 
12.9178 10.0455 4.30442 3 
15.7902 10.046 4.30464 3 
12.9166 10.0433 7.17203 3 
14.354 8.60929 5.7388 3 
15.7902 10.0442 7.17276 3 
14.3536 11.4811 5.73882 3 
18.6625 10.0465 4.30482 3 
17.2267 8.60998 5.73916 3 
18.6632 10.0451 7.17341 3 
20.099 8.61064 5.73958 3 
17.2263 11.4817 5.73921 3 
20.0987 11.4822 5.73939 3 
21.5345 10.0469 4.30496 3 
21.5354 10.046 7.17414 3 
22.9707 8.61122 5.74009 3 
22.9705 11.4825 5.7397 3 
24.4063 10.0468 7.1753 3 
24.406 10.0471 4.30519 3 
28.7119 8.61145 5.74109 3 
27.2769 10.047 4.30539 3 
25.8416 8.6116 5.74075 3 
27.2772 10.0468 7.17607 3 
25.842 11.4824 5.74008 3 
1.43526 12.9184 4.30535 3 
1.43569 15.7902 4.30527 3 
1.43541 12.9183 7.17619 3 
1.43585 15.7902 7.176 3 
2.87017 14.3544 5.74063 3 
0.000850919 14.3541 5.7403 3 
4.30503 15.7905 4.30523 3 
4.30461 12.9184 4.30517 3 
7.17452 12.9181 4.30463 3 
7.17498 15.7906 4.30479 3 
4.30447 12.9183 7.17571 3 
7.17326 12.9176 7.17369 3 
4.30491 15.7905 7.17582 3 
5.73937 14.3544 5.73981 3 
7.17392 15.7906 7.1741 3 
10.0456 12.9178 4.30442 3 
10.0461 15.7903 4.30464 3 
10.0434 12.9166 7.17206 3 
8.60951 14.3541 5.73882 3 
10.0443 15.7903 7.1728 3 
11.4811 14.3536 5.73883 3 
12.9177 12.9177 4.30465 3 
15.79 12.918 4.30493 3 
12.9181 15.79 4.30493 3 
15.7902 15.7901 4.30523 3 
12.916 12.9159 7.1724 3 
15.7896 12.9166 7.17347 3 
12.9167 15.7896 7.17349 3 
14.3536 14.3535 5.73956 3 
15.7896 15.7895 7.17475 3 
18.6622 12.9184 4.30499 3 
18.6622 15.7904 4.3052 3 
18.6626 12.9174 7.17373 3 
17.2261 14.354 5.73987 3 
18.6624 15.7902 7.17457 3 
20.0984 14.3543 5.73965 3 
21.5342 12.9186 4.30494 3 
21.5344 15.7904 4.30499 3 
24.4064 15.7901 4.30482 3 
21.5348 12.918 7.17392 3 
24.4071 12.9175 7.17419 3 
21.5354 15.7899 7.1738 3 
22.9707 14.354 5.73939 3 
24.4078 15.7894 7.17352 3 
24.4061 12.9184 4.30494 3 
27.2773 12.9183 4.30515 3 
27.2777 15.79 4.30498 3 
27.278 12.9178 7.17524 3 
25.8425 14.3538 5.7396 3 
27.2786 15.7896 7.17465 3 
1.43608 18.6623 4.30524 3 
1.43626 18.6622 7.17588 3 
2.87059 17.2264 5.74063 3 
2.87095 20.0984 5.74069 3 
0.00127083 17.226 5.74005 3 
0.00167711 20.0982 5.73993 3 
4.30546 18.6626 4.3053 3 
7.17546 18.6628 4.30497 3 
4.30535 18.6626 7.17601 3 
5.73985 17.2267 5.74004 3 
7.17456 18.6631 7.17462 3 
5.74031 20.0987 5.74033 3 
10.0467 18.6626 4.30484 3 
8.61013 17.2268 5.73922 3 
10.0452 18.6632 7.17344 3 
11.4818 17.2264 5.73921 3 
8.61069 20.0989 5.73961 3 
11.4824 20.0986 5.73942 3 
12.9186 18.6622 4.30501 3 
15.7906 18.6621 4.30525 3 
12.9176 18.6626 7.17373 3 
14.3541 17.226 5.7399 3 
15.7905 18.6622 7.17456 3 
14.3546 20.0982 5.73969 3 
18.6627 18.6623 4.30529 3 
17.2264 17.2262 5.74027 3 
18.6632 18.6628 7.17482 3 
20.0987 17.2264 5.73994 3 
17.2268 20.0984 5.73997 3 
20.0993 20.0988 5.7397 3 
21.5348 18.6624 4.30499 3 
24.4068 18.6622 4.3047 3 
21.5361 18.6627 7.17363 3 
22.9711 17.2261 5.73929 3 
24.4086 18.6622 7.17295 3 
22.9717 20.0987 5.73899 3 
27.2781 18.6621 4.30483 3 
25.8429 17.2259 5.73927 3 
27.2791 18.662 7.1742 3 
25.8434 20.0984 5.73898 3 
1.4364 21.5343 4.30523 3 
1.43654 24.4061 4.3053 3 
1.43659 21.5343 7.17583 3 
2.87124 22.9702 5.7408 3 
1.4368 24.4062 7.17598 3 
0.00198923 22.9705 5.73986 3 
4.3058 21.5344 4.30542 3 
7.17586 21.5345 4.30518 3 
7.17615 24.4058 4.30548 3 
4.30572 21.5344 7.17628 3 
7.17521 21.535 7.17525 3 
4.30607 24.4058 7.17667 3 
5.74073 22.9703 5.74068 3 
7.17591 24.406 7.17611 3 
4.30604 24.4058 4.30559 3 
10.047 21.5344 4.305 3 
10.046 21.5352 7.17419 3 
8.61119 22.9705 5.74013 3 
10.0468 24.4061 7.17533 3 
11.4827 22.9703 5.73976 3 
10.0472 24.4057 4.30527 3 
12.9188 21.5341 4.305 3 
15.7908 21.5342 4.30509 3 
12.9187 24.4058 4.30502 3 
15.7906 24.4061 4.30493 3 
12.9182 21.5347 7.17395 3 
15.7903 21.5351 7.17381 3 
14.3544 22.9705 5.73947 3 
15.7899 24.4076 7.17353 3 
12.9178 24.4068 7.1742 3 
18.6629 21.5344 4.30504 3 
18.6628 24.4064 4.3048 3 
18.6633 21.5357 7.17363 3 
17.2267 22.9708 5.73935 3 
18.6628 24.4083 7.17296 3 
20.0993 22.9713 5.73902 3 
21.5351 21.5347 4.30479 3 
24.4072 21.5346 4.30456 3 
21.5352 24.4068 4.30458 3 
24.4073 24.4069 4.30446 3 
21.5369 21.5364 7.17262 3 
21.5363 24.409 7.17227 3 
22.9721 22.9716 5.73851 3 
24.4095 24.4091 7.17213 3 
24.4094 21.5357 7.17231 3 
27.2784 21.5343 4.30476 3 
27.2786 24.4066 4.30475 3 
27.2797 21.5348 7.17389 3 
25.8438 22.9711 5.73874 3 
27.2799 24.4075 7.17392 3 
1.4364 27.2773 4.30547 3 
1.43659 27.2774 7.17649 3 
2.87134 25.8415 5.74108 3 
0.00193312 25.8423 5.74011 3 
4.30604 27.2766 4.30577 3 
7.17626 27.2763 4.30571 3 
5.74098 28.7114 5.74146 3 
4.30615 27.2765 7.1771 3 
5.74104 25.8412 5.74116 3 
7.17634 27.2763 7.1769 3 
8.61145 28.7115 5.74114 3 
11.4826 28.7119 5.74069 3 
10.0471 27.2765 4.30546 3 
8.61157 25.8412 5.7408 3 
10.0469 27.2768 7.17608 3 
11.4825 25.8416 5.74014 3 
12.9185 27.2769 4.30525 3 
15.7905 27.2773 4.30509 3 
12.9181 27.2775 7.17525 3 
14.3542 25.8421 5.73964 3 
15.7901 27.2782 7.17464 3 
18.6626 27.2778 4.30492 3 
17.2265 25.8426 5.73933 3 
18.6626 27.2789 7.17419 3 
20.099 25.8431 5.73898 3 
21.5349 27.2782 4.3048 3 
24.4069 27.2784 4.30475 3 
21.5354 27.2795 7.17383 3 
22.9716 25.8435 5.73873 3 
24.4079 27.2797 7.17388 3 
27.2783 27.2781 4.305 3 
25.8436 25.8433 5.73898 3 
27.2792 27.2789 7.17489 3 
2.87039 2.87016 8.61313 3 
0.000233759 2.87101 8.61292 3 
1.4357 1.43552 10.0487 3 
2.87042 2.87021 11.4845 3 
0.000955225 0.000796338 11.484 3 
0.00128598 0.00111078 8.61223 3 
5.74056 2.86935 8.61288 3 
4.30593 1.43461 10.0489 3 
7.17645 1.43421 10.0486 3 
5.7409 2.86942 11.4844 3 
8.61125 2.86907 8.61235 3 
11.4827 2.86937 8.61192 3 
11.4827 1.59928e-05 8.61181 3 
10.0474 1.43441 10.0481 3 
8.61183 2.86919 11.484 3 
11.4832 2.86948 11.4836 3 
14.3546 2.86989 8.61175 3 
12.9188 1.43489 10.0477 3 
15.7906 1.43538 10.0473 3 
14.3549 2.87001 11.4833 3 
14.3543 0.000656626 8.6112 3 
14.3548 1.68266e-05 11.483 3 
17.2266 2.87042 8.61168 3 
20.0986 2.87093 8.61178 3 
20.099 0.00114219 11.4821 3 
17.2267 0.000476599 11.4825 3 
18.6626 1.43587 10.0472 3 
17.2266 2.87047 11.4832 3 
20.0983 2.87093 11.4833 3 
17.2264 0.00125896 8.61077 3 
20.0989 0.00185064 8.61047 3 
22.9704 2.87135 8.61196 3 
21.5347 1.43641 10.0471 3 
24.4065 1.4367 10.0474 3 
22.9699 2.8713 11.4836 3 
22.9713 0.00234703 8.61039 3 
22.9713 0.00185758 11.4822 3 
28.712 2.87101 11.4844 3 
25.8417 2.87145 8.6124 3 
27.2773 1.43636 10.0482 3 
25.8411 2.87138 11.4841 3 
25.8431 0.0022244 8.61096 3 
25.8425 0.00169842 11.4832 3 
2.8697 5.74044 8.61288 3 
1.43492 4.3058 10.0488 3 
1.43464 7.17636 10.0486 3 
2.86977 5.74074 11.4844 3 
5.73945 5.73918 8.6121 3 
4.30442 7.17529 10.0481 3 
4.3051 4.30484 10.0486 3 
7.17547 4.30403 10.0481 3 
7.1738 7.17353 10.0468 3 
5.73985 5.73957 11.4839 3 
8.6097 5.73811 8.61081 3 
11.4816 5.73817 8.61026 3 
10.0465 4.30385 10.0473 3 
10.0438 7.17197 10.0446 3 
8.61036 5.73869 11.4831 3 
11.4816 5.7387 11.4821 3 
14.3543 5.73883 8.61036 3 
15.7906 4.30496 10.0471 3 
12.9184 4.30434 10.047 3 
12.9168 7.17248 10.0442 3 
15.7903 7.17356 10.0448 3 
14.3541 5.73958 11.482 3 
17.2268 5.73956 8.61068 3 
20.099 5.74023 8.61116 3 
18.6626 4.30552 10.0473 3 
18.6632 7.17448 10.0455 3 
17.2265 5.74038 11.4824 3 
20.0984 5.74093 11.483 3 
22.9705 5.74082 8.6118 3 
21.5344 4.30599 10.0477 3 
21.5351 7.17533 10.0465 3 
22.9698 5.74133 11.4837 3 
24.406 7.1763 10.0477 3 
24.4057 4.30633 10.0482 3 
28.7117 5.74119 8.61299 3 
28.7114 5.74151 11.4845 3 
25.8414 5.74128 8.61256 3 
27.2765 4.30633 10.0486 3 
27.2763 7.17678 10.0485 3 
25.8408 5.74166 11.4842 3 
2.86953 8.61114 8.61236 3 
2.86981 11.4825 8.61198 3 
1.43489 10.0472 10.0482 3 
2.86962 8.61164 11.4841 3 
2.86991 11.483 11.4837 3 
0.000468598 11.4825 8.61186 3 
5.73846 8.60955 8.61081 3 
5.73855 11.4815 8.6103 3 
4.30427 10.0464 10.0474 3 
7.17228 10.0437 10.0446 3 
5.73908 8.61015 11.4832 3 
5.73906 11.4814 11.4822 3 
8.60687 8.6067 8.60761 3 
11.4793 8.60601 8.60641 3 
8.60623 11.4792 8.60646 3 
11.4768 11.4767 8.60393 3 
10.0382 10.038 10.0382 3 
8.60775 8.60749 11.4814 3 
11.4771 8.60508 11.4776 3 
8.60537 11.4769 11.4776 3 
11.4646 11.4644 11.4636 3 
14.3535 8.60688 8.60693 3 
14.3522 11.4775 8.60523 3 
12.9134 10.0379 10.0375 3 
15.7902 10.04 10.0392 3 
14.3521 8.60668 11.4777 3 
14.3481 11.4673 11.4656 3 
17.2272 8.60806 8.6078 3 
20.1 8.60916 8.60885 3 
17.227 11.479 8.60657 3 
20.1002 11.4803 8.60748 3 
18.6651 10.0419 10.041 3 
17.2269 8.60834 11.4791 3 
20.0999 8.60952 11.4807 3 
17.23 11.4714 11.4698 3 
20.1048 11.4757 11.474 3 
22.9714 8.61045 8.61027 3 
22.9711 11.4819 8.60934 3 
21.5372 10.0441 10.0434 3 
22.9708 8.61114 11.4825 3 
22.9705 11.4824 11.481 3 
24.4062 10.0469 10.0466 3 
28.712 11.4831 11.4838 3 
28.7115 8.61221 11.4843 3 
28.7118 8.61167 8.61256 3 
25.8415 8.61164 8.61191 3 
25.8427 11.4816 8.61033 3 
27.2769 10.0471 10.0478 3 
25.8408 8.61235 11.4839 3 
25.8421 11.4822 11.4826 3 
2.87023 14.3544 8.61182 3 
0.00103609 14.354 8.61129 3 
1.43529 12.9186 10.0478 3 
1.43566 15.7903 10.0475 3 
2.87033 14.3546 11.4835 3 
0.000359903 14.3544 11.4832 3 
5.73909 14.3542 8.61042 3 
4.30469 12.9182 10.0472 3 
7.17276 12.9167 10.0443 3 
4.3052 15.7904 10.0473 3 
7.17376 15.7903 10.0449 3 
5.73988 14.3539 11.4821 3 
8.60708 14.3535 8.60698 3 
11.4776 14.3522 8.60524 3 
10.0381 12.9133 10.0376 3 
10.0401 15.7902 10.0392 3 
8.6069 14.352 11.4778 3 
11.4674 14.3481 11.4656 3 
14.3513 14.3512 8.607 3 
12.9094 12.9093 10.0348 3 
15.7887 12.9119 10.0383 3 
12.912 15.7887 10.0383 3 
15.7875 15.7874 10.0416 3 
14.3413 14.3413 11.4663 3 
17.2261 14.3525 8.60824 3 
20.0989 14.3537 8.60802 3 
18.665 12.9141 10.0399 3 
18.6623 15.7902 10.0424 3 
17.2286 14.346 11.4719 3 
20.0983 14.3543 11.476 3 
22.9726 14.3524 8.60758 3 
21.5354 12.9173 10.0428 3 
21.5386 15.7874 10.04 3 
22.9771 14.3478 11.4741 3 
24.4089 12.9157 10.0434 3 
24.4111 15.7875 10.0412 3 
25.8439 14.3528 8.60895 3 
27.2779 12.9178 10.0467 3 
27.2787 15.7895 10.0458 3 
25.8436 14.3528 11.4809 3 
2.87062 17.2263 8.61184 3 
2.87096 20.0982 8.61189 3 
0.00199743 20.0983 8.61056 3 
0.0015279 17.226 8.61089 3 
1.43602 18.6622 10.0473 3 
2.87062 17.2263 11.4835 3 
2.87089 20.0979 11.4836 3 
0.000681637 17.2262 11.4827 3 
0.00124768 20.0985 11.4823 3 
5.73968 17.2267 8.61083 3 
5.74017 20.0988 8.61131 3 
4.30557 18.6624 10.0475 3 
7.17455 18.6631 10.0457 3 
5.74053 17.2263 11.4826 3 
5.74092 20.0982 11.4832 3 
8.60816 17.2272 8.6079 3 
11.4791 17.227 8.60658 3 
8.6092 20.0999 8.60889 3 
11.4805 20.1001 8.60751 3 
10.042 18.6651 10.0411 3 
8.60845 17.2269 11.4792 3 
11.4716 17.23 11.4698 3 
8.60963 20.0998 11.4808 3 
11.4759 20.1047 11.4741 3 
14.3526 17.226 8.60823 3 
14.354 20.0987 8.60801 3 
12.9143 18.6649 10.0399 3 
15.7905 18.6621 10.0424 3 
14.3462 17.2285 11.4719 3 
14.3546 20.0981 11.476 3 
17.2264 17.2262 8.60953 3 
20.1002 17.2263 8.60833 3 
17.2268 20.0999 8.60831 3 
20.1015 20.101 8.60717 3 
18.6652 18.6649 10.0417 3 
17.2263 17.2261 11.4786 3 
20.1065 17.2237 11.472 3 
17.2241 20.1063 11.4719 3 
20.1114 20.1109 11.4665 3 
22.9738 17.2254 8.60674 3 
22.9752 20.1001 8.60546 3 
21.5408 18.6636 10.0385 3 
22.9813 17.2223 11.47 3 
22.9854 20.1041 11.4658 3 
24.4128 18.6621 10.0394 3 
25.8449 17.2253 8.60799 3 
25.8459 20.0989 8.60716 3 
27.2794 18.6622 10.045 3 
25.8446 17.2255 11.4793 3 
25.846 20.1002 11.478 3 
2.87127 22.97 8.61208 3 
0.0024333 22.9708 8.61048 3 
0.00190608 22.9709 11.4823 3 
1.4364 21.5342 10.0473 3 
1.43668 24.406 10.0475 3 
2.8712 22.9695 11.4838 3 
5.74072 22.9702 8.6119 3 
4.30587 21.534 10.0479 3 
7.17531 21.5349 10.0466 3 
4.30621 24.4053 10.0483 3 
7.17625 24.4056 10.0478 3 
5.74125 22.9695 11.4838 3 
8.61048 22.9712 8.61035 3 
11.4821 22.9709 8.60934 3 
10.047 24.406 10.0466 3 
10.0442 21.537 10.0434 3 
8.61119 22.9705 11.4826 3 
11.4826 22.9703 11.481 3 
14.3528 22.9723 8.60753 3 
12.9176 21.5353 10.0428 3 
15.7879 21.5383 10.0399 3 
12.916 24.4087 10.0434 3 
15.788 24.4108 10.0411 3 
14.3483 22.9769 11.474 3 
17.226 22.9735 8.60668 3 
20.1007 22.9748 8.60543 3 
20.1047 22.985 11.4657 3 
17.2229 22.981 11.4699 3 
18.6641 21.5404 10.0384 3 
18.6627 24.4125 10.0393 3 
22.976 22.9756 8.6042 3 
22.9882 22.9878 11.4638 3 
21.5434 21.5429 10.0351 3 
24.4146 24.4142 10.0385 3 
21.5395 24.4144 10.0377 3 
24.4147 21.5389 10.0378 3 
25.8466 22.973 8.60671 3 
27.2802 21.5356 10.0445 3 
25.8475 22.9753 11.4778 3 
27.2806 24.4086 10.0448 3 
2.87109 28.712 8.61297 3 
2.87109 28.7117 11.4844 3 
2.8714 25.8413 8.61246 3 
1.4364 27.2771 10.0482 3 
2.87134 25.8408 11.4841 3 
0.00234419 25.8428 8.61099 3 
0.00177861 25.8422 11.4833 3 
5.74121 28.7113 8.61301 3 
5.74119 25.841 8.61261 3 
5.7416 25.8404 11.4843 3 
5.74157 28.711 11.4845 3 
7.17675 27.2759 10.0485 3 
4.30629 27.2762 10.0487 3 
8.61171 28.7114 8.61256 3 
8.61231 28.7111 11.4842 3 
8.61165 25.8411 8.61194 3 
11.4818 25.8424 8.6103 3 
11.4834 28.7115 11.4837 3 
11.4825 25.8417 11.4825 3 
8.61241 25.8404 11.4838 3 
10.0472 27.2766 10.0477 3 
14.3532 25.8436 8.60892 3 
14.3533 25.8433 11.4807 3 
15.79 27.2784 10.0456 3 
12.9181 27.2776 10.0465 3 
17.2259 25.8446 8.60797 3 
20.0995 25.8456 8.60709 3 
17.2262 25.8444 11.4792 3 
18.6628 27.2791 10.0449 3 
20.1009 25.8458 11.4778 3 
22.9736 25.8463 8.60663 3 
21.5362 27.28 10.0443 3 
24.409 27.2804 10.0448 3 
22.9758 25.8472 11.4777 3 
25.8459 25.8456 8.60782 3 
27.279 27.2788 10.0469 3 
25.8451 25.8448 11.4815 3 
1.43556 1.43541 12.92 3 
1.4355 1.43534 15.7909 3 
2.87043 2.87022 14.3556 3 
0.000721292 0.000565291 14.3553 3 
4.30609 1.4345 12.9201 3 
7.17691 1.43409 12.92 3 
4.30618 1.4344 15.791 3 
7.17721 1.43399 15.7909 3 
5.74115 2.86945 14.3555 3 
10.0481 1.43423 12.9197 3 
11.4839 2.86955 14.3551 3 
8.61234 2.86923 14.3553 3 
10.0486 1.43407 15.7908 3 
12.9196 1.43454 12.9194 3 
15.7911 1.43488 12.919 3 
14.3554 2.86999 14.3548 3 
12.9202 1.43425 15.7907 3 
15.7916 1.43437 15.7905 3 
18.6626 1.43532 12.9187 3 
20.0978 2.87089 14.3548 3 
17.2266 2.87047 14.3547 3 
18.6625 1.43484 15.7903 3 
21.5342 1.43591 12.9188 3 
24.4057 1.43629 12.9193 3 
22.9692 2.87121 14.3551 3 
22.9702 0.000904995 14.3546 3 
21.5336 1.43553 15.7904 3 
24.4052 1.43612 15.7906 3 
27.2769 1.43615 12.9197 3 
25.8418 0.00127066 14.355 3 
27.2766 1.43608 15.7908 3 
28.7117 2.87104 14.3555 3 
25.8406 2.87134 14.3553 3 
1.43479 4.30597 12.9201 3 
1.43449 7.17677 12.92 3 
1.4347 4.30604 15.791 3 
1.43442 7.17699 15.791 3 
2.86979 5.74095 14.3556 3 
4.30527 4.305 12.92 3 
7.17597 4.30427 12.9197 3 
4.30466 7.17573 12.9197 3 
7.17447 7.17415 12.9191 3 
5.74013 5.7398 14.3553 3 
4.30537 4.30507 15.791 3 
7.17626 4.30438 15.7908 3 
4.3048 7.17595 15.7909 3 
7.17487 7.17447 15.7907 3 
10.0473 4.30428 12.9193 3 
10.0451 7.1734 12.9183 3 
8.611 5.73914 14.355 3 
11.4827 5.73967 14.3546 3 
10.0478 4.30448 15.7907 3 
10.046 7.17403 15.7905 3 
12.9188 4.30486 12.9188 3 
15.7906 4.30555 12.9187 3 
12.9165 7.17387 12.9167 3 
15.7897 7.17535 12.917 3 
12.9195 4.3052 15.7905 3 
15.7906 4.306 15.7903 3 
12.9182 7.17554 15.7901 3 
15.7892 7.17736 15.7895 3 
14.3543 5.74078 14.354 3 
18.6622 4.30607 12.919 3 
18.6622 7.17615 12.9181 3 
20.0973 5.74195 14.355 3 
18.6616 4.30649 15.7905 3 
18.6606 7.17799 15.7905 3 
17.2259 5.74166 14.3544 3 
21.5336 4.30637 12.9194 3 
24.405 4.30649 12.9197 3 
21.534 7.17655 12.919 3 
24.4051 7.17705 12.9197 3 
22.969 5.74188 14.3553 3 
21.533 4.30659 15.7907 3 
21.5329 7.17748 15.7908 3 
24.4044 7.17752 15.7909 3 
24.4045 4.30662 15.7908 3 
28.7111 5.74175 14.3556 3 
27.2761 4.30645 12.92 3 
27.2758 7.17726 12.92 3 
25.8402 5.74197 14.3555 3 
27.2758 4.30657 15.791 3 
27.2754 7.17759 15.791 3 
1.43472 10.0479 12.9198 3 
1.43458 10.0483 15.791 3 
2.8697 8.61213 14.3554 3 
2.87002 11.4836 14.3553 3 
4.30473 10.047 12.9194 3 
7.17377 10.0449 12.9184 3 
5.73956 8.61075 14.3551 3 
4.30499 10.0475 15.7909 3 
7.17446 10.0457 15.7906 3 
5.74009 11.4824 14.3547 3 
10.0413 10.041 12.9165 3 
11.4801 8.60843 14.3539 3 
10.0429 10.0426 15.7903 3 
8.60887 8.60853 14.3545 3 
8.60875 11.4799 14.354 3 
11.4751 11.4749 14.3544 3 
12.9089 10.0374 12.9093 3 
15.7881 10.0411 12.9109 3 
14.3391 11.4699 14.3383 3 
14.3513 8.60981 14.3512 3 
12.9159 10.0447 15.7905 3 
15.7854 10.0474 15.7858 3 
17.2259 11.4754 14.3453 3 
18.6644 10.0431 12.914 3 
20.1022 11.4787 14.3504 3 
20.0978 8.61202 14.3544 3 
17.2251 8.61169 14.3526 3 
18.6602 10.0481 15.7897 3 
21.536 10.0455 12.9169 3 
24.4048 10.0482 12.9192 3 
22.9679 11.4849 14.3547 3 
21.5336 10.048 15.7906 3 
24.4037 10.0493 15.7909 3 
22.9693 8.61254 14.3551 3 
28.7112 8.61271 14.3555 3 
28.7114 11.4839 14.3554 3 
27.2762 10.0479 12.9197 3 
25.8399 8.61312 14.3555 3 
27.2756 10.0485 15.791 3 
25.8406 11.4835 14.3552 3 
1.43494 12.9192 12.9196 3 
1.43516 15.7906 12.9193 3 
1.43469 12.9198 15.7909 3 
1.43467 15.7912 15.7908 3 
2.87036 14.3551 14.3551 3 
4.30524 12.9186 12.919 3 
7.17418 12.9164 12.9168 3 
4.30582 15.7903 12.9189 3 
7.17556 15.7896 12.9171 3 
5.74111 14.3541 14.3542 3 
4.30564 12.9192 15.7907 3 
7.17593 12.918 15.7902 3 
4.3063 15.7904 15.7905 3 
7.17763 15.7891 15.7896 3 
10.0376 12.9088 12.9093 3 
10.0413 15.7881 12.9109 3 
8.61009 14.3512 14.3513 3 
11.4701 14.3391 14.3383 3 
10.045 12.9158 15.7906 3 
10.0477 15.7854 15.7859 3 
14.2567 14.2566 14.251 3 
12.8783 12.8783 12.8756 3 
15.7889 12.8923 12.8873 3 
12.8923 15.7889 12.8873 3 
15.7803 15.7802 12.8836 3 
12.9136 12.9134 15.8008 3 
15.7679 12.9086 15.7595 3 
12.9088 15.7678 15.7595 3 
15.6402 15.6401 15.3886 5 
18.6767 12.9015 12.8985 3 
18.6566 15.7957 12.9102 3 
20.0901 14.3623 14.353 3 
18.6716 12.9076 15.781 3 
18.625 15.8273 15.8039 5 
17.2584 14.3043 14.3095 3 
21.5332 12.9194 12.9159 3 
24.4074 12.9168 12.917 3 
21.5511 15.7756 12.8987 3 
22.974 14.3503 14.3505 3 
24.4098 15.7881 12.9142 3 
21.5284 12.9242 15.791 3 
24.4049 12.9191 15.7906 3 
21.5449 15.7808 15.7811 3 
24.4047 15.7922 15.7899 3 
28.7113 14.3554 14.3552 3 
27.2767 12.9188 12.9192 3 
27.277 15.7904 12.9183 3 
27.2757 12.9199 15.7909 3 
27.275 15.7919 15.7907 3 
25.841 14.3548 14.3546 3 
1.4354 18.6621 12.919 3 
2.87089 20.0974 14.355 3 
1.43492 18.6621 15.7905 3 
2.87064 17.2262 14.355 3 
6.37399e-06 20.0983 14.3542 3 
4.30613 18.6619 12.9192 3 
7.17629 18.6621 12.9182 3 
5.74185 17.2257 14.3545 3 
5.74201 20.0971 14.3551 3 
4.30661 18.6613 15.7907 3 
7.17818 18.6605 15.7906 3 
10.0432 18.6644 12.914 3 
11.4789 20.1021 14.3504 3 
8.61216 20.0977 14.3545 3 
8.61186 17.225 14.3527 3 
10.0483 18.6601 15.7898 3 
11.4755 17.2259 14.3453 3 
14.3045 17.2584 14.3094 3 
12.9017 18.6767 12.8985 3 
15.7961 18.6565 12.9101 3 
12.9079 18.6715 15.781 3 
15.8276 18.6249 15.8038 5 
14.3627 20.09 14.3529 3 
20.1959 20.1955 14.2511 3 
17.1942 20.1479 14.3095 3 
18.6723 18.672 12.8836 3 
20.1481 17.1938 14.3096 3 
18.8124 18.8122 15.3885 5 
17.2263 17.2261 14.3921 5 
21.5603 18.6633 12.8874 3 
24.4117 18.6642 12.9111 3 
21.5438 18.6844 15.7596 3 
22.9773 17.2264 14.3454 3 
24.4052 18.6669 15.7859 3 
22.9827 20.1131 14.3384 3 
28.7114 17.2267 14.3546 3 
25.8412 17.2273 14.3528 3 
27.2775 18.6628 12.9172 3 
27.2754 18.6632 15.7897 3 
25.8428 20.1011 14.3514 3 
1.43589 21.5338 12.919 3 
1.43629 24.4054 12.9194 3 
1.43549 21.5332 15.7906 3 
1.43607 24.4048 15.7907 3 
0.000924677 22.9699 14.3547 3 
2.87116 22.9688 14.3552 3 
5.74187 22.9687 14.3553 3 
4.30632 21.5333 12.9196 3 
7.17659 21.5338 12.9191 3 
4.30642 24.4047 12.9198 3 
7.17706 24.4047 12.9197 3 
4.30658 21.5327 15.7908 3 
7.1776 21.5327 15.7908 3 
4.30658 24.4042 15.7909 3 
7.17762 24.4041 15.7909 3 
10.0457 21.5358 12.9169 3 
10.0484 24.4046 12.9191 3 