ITEM: TIMESTEP
9043
ITEM: NUMBER OF ATOMS
18
ITEM: BOX BOUNDS pp pp pp
0.0000000000000000e+00 2.8712000000000000e+01
0.0000000000000000e+00 2.8712000000000000e+01
0.0000000000000000e+00 2.8712000000000000e+01
ITEM: ATOMS x y z c_cna 
15.6402 15.6401 15.3886 5 
18.625 15.8273 15.8039 5 
15.8276 18.6249 15.8038 5 
18.8124 18.8122 15.3885 5 
17.2263 17.2261 14.3921 5 
14.4059 14.4058 17.2262 5 
15.6402 15.6401 19.0637 5 
17.2216 14.2517 17.2262 5 
18.625 15.8273 18.6486 5 
14.2519 17.2215 17.2261 5 
15.8276 18.6249 18.6485 5 
16.4772 16.477 17.2262 5 
17.9752 17.9751 17.2262 5 
17.231 20.2005 17.2261 5 
20.0467 20.0464 17.2262 5 
20.2006 17.2307 17.2262 5 
18.8124 18.8121 19.0638 5 
17.2263 17.2261 20.0603 5 
ITEM: TIMESTEP
9044
ITEM: NUMBER OF ATOMS
18
ITEM: BOX BOUNDS pp pp pp
0.0000000000000000e+00 2.8712000000000000e+01
0.0000000000000000e+00 2.8712000000000000e+01
0.0000000000000000e+00 2.8712000000000000e+01
ITEM: ATOMS x y z c_cna 
15.6402 15.6401 15.3886 5 
18.625 15.8273 15.8039 5 
15.8276 18.6249 15.8038 5 
18.8124 18.8122 15.3885 5 
17.2263 17.2261 14.3921 5 
14.4059 14.4058 17.2262 5 
15.6402 15.6401 19.0637 5 
17.2216 14.2517 17.2262 5 
18.625 15.8273 18.6486 5 
14.2519 17.2215 17.2261 5 
15.8276 18.6249 18.6485 5 
16.4772 16.477 17.2262 5 
17.9752 17.9751 17.2262 5 
17.231 20.2005 17.2261 5 
20.0467 20.0464 17.2262 5 
20.2006 17.2307 17.2262 5 
18.8124 18.8121 19.0638 5 
17.2263 17.2261 20.0603 5 
