ITEM: TIMESTEP
1042
ITEM: NUMBER OF ATOMS
18
ITEM: BOX BOUNDS pp pp pp
0.0000000000000000e+00 2.8712000000000000e+01
0.0000000000000000e+00 2.8712000000000000e+01
0.0000000000000000e+00 2.8712000000000000e+01
ITEM: ATOMS x y z 
15.7916 12.971 12.971 
15.7916 15.7867 12.8169 
15.7916 12.8171 15.7867 
12.9576 15.7914 15.7913 
13.9541 14.2053 14.2053 
15.7917 15.0424 15.0422 
17.6292 14.2053 14.2052 
18.6258 15.7913 15.7913 
14.3693 17.1902 14.3926 
15.7917 18.7658 15.796 
17.214 17.1901 14.3925 
14.3692 14.3926 17.1901 
15.7916 15.796 18.7657 
17.214 14.3927 17.1901 
15.7916 16.5405 16.5403 
13.9539 17.3775 17.3776 
15.7917 18.6117 18.6117 
17.6291 17.3772 17.3774 
ITEM: TIMESTEP
2040
ITEM: NUMBER OF ATOMS
18
ITEM: BOX BOUNDS pp pp pp
0.0000000000000000e+00 2.8712000000000000e+01
0.0000000000000000e+00 2.8712000000000000e+01
0.0000000000000000e+00 2.8712000000000000e+01
ITEM: ATOMS x y z 
15.3887 15.64 15.6401 
17.2264 14.4057 14.4059 
19.064 15.64 15.6401 
15.804 18.625 15.8274 
17.2264 17.2215 14.2519 
18.6488 18.6249 15.8274 
15.8041 15.8273 18.6249 
17.2264 14.2516 17.2216 
18.6488 15.8273 18.6249 
14.3923 17.2262 17.2262 
15.389 18.8122 18.8122 
17.2265 16.4769 16.4773 
17.2265 17.9755 17.975 
19.064 18.8121 18.8122 
20.0606 17.2261 17.2262 
17.2265 20.2007 17.2308 
17.2265 17.2308 20.2003 
17.2265 20.0465 20.0464 
ITEM: TIMESTEP
3041
ITEM: NUMBER OF ATOMS
18
ITEM: BOX BOUNDS pp pp pp
0.0000000000000000e+00 2.8712000000000000e+01
0.0000000000000000e+00 2.8712000000000000e+01
0.0000000000000000e+00 2.8712000000000000e+01
ITEM: ATOMS x y z 
15.389 15.6401 15.6401 
17.2265 14.4057 14.4059 
19.0641 15.6399 15.6401 
15.8042 18.6249 15.8275 
17.2265 17.2214 14.252 
18.649 18.6249 15.8275 
15.8041 15.8274 18.6249 
17.2265 14.2516 17.2215 
18.6489 15.8273 18.6249 
14.3924 17.2261 17.2261 
15.389 18.8122 18.8121 
17.2265 16.4768 16.4772 
17.2266 17.9755 17.9751 
19.0642 18.8122 18.8122 
20.0607 17.226 17.2261 
17.2266 20.2006 17.2308 
17.2265 17.2308 20.2004 
17.2266 20.0466 20.0464 
ITEM: TIMESTEP
4038
ITEM: NUMBER OF ATOMS
18
ITEM: BOX BOUNDS pp pp pp
0.0000000000000000e+00 2.8712000000000000e+01
0.0000000000000000e+00 2.8712000000000000e+01
0.0000000000000000e+00 2.8712000000000000e+01
ITEM: ATOMS x y z 
15.3889 15.64 15.6401 
17.2265 14.4056 14.406 
19.0643 15.6399 15.64 
15.8041 18.6249 15.8275 
17.2265 17.2214 14.252 
18.6489 18.6249 15.8274 
15.8042 15.8274 18.625 
17.2266 14.2516 17.2216 
18.649 15.8273 18.6249 
14.3924 17.2261 17.2262 
15.389 18.8122 18.8122 
17.2266 16.4768 16.4774 
17.2265 17.9754 17.9751 
19.0641 18.8122 18.8121 
20.0607 17.2261 17.2261 
17.2265 20.2006 17.2307 
17.2266 17.2308 20.2004 
17.2266 20.0466 20.0463 
ITEM: TIMESTEP
5040
ITEM: NUMBER OF ATOMS
18
ITEM: BOX BOUNDS pp pp pp
0.0000000000000000e+00 2.8712000000000000e+01
0.0000000000000000e+00 2.8712000000000000e+01
0.0000000000000000e+00 2.8712000000000000e+01
ITEM: ATOMS x y z 
15.3889 15.6402 15.6401 
17.2266 14.406 14.4059 
19.0642 15.6403 15.6402 
15.8041 18.6251 15.8274 
17.2265 17.2217 14.2517 
18.6489 18.6251 15.8274 
15.8041 15.8276 18.625 
17.2265 14.2521 17.2216 
18.6489 15.8276 18.625 
14.3924 17.2263 17.2262 
15.3887 18.8124 18.8123 
17.2266 16.4774 16.477 
17.2265 17.9753 17.9753 
19.0641 18.8124 18.8124 
20.0606 17.2264 17.2262 
17.2264 20.2006 17.2308 
17.2265 17.2309 20.2006 
17.2264 20.0466 20.0466 
ITEM: TIMESTEP
6041
ITEM: NUMBER OF ATOMS
18
ITEM: BOX BOUNDS pp pp pp
0.0000000000000000e+00 2.8712000000000000e+01
0.0000000000000000e+00 2.8712000000000000e+01
0.0000000000000000e+00 2.8712000000000000e+01
ITEM: ATOMS x y z 
18.6615 15.8411 15.8408 
18.6615 18.6567 15.6867 
18.6614 15.6872 18.6565 
15.8272 18.6613 18.6613 
16.8238 17.0752 17.0751 
18.6616 17.9125 17.912 
18.6613 19.4102 19.4108 
17.239 20.06 17.2625 
20.0838 20.06 17.2624 
17.239 17.2625 20.0601 
20.0838 17.2626 20.06 
20.4991 20.2474 20.2474 
20.4991 17.0752 17.075 
16.8237 20.2473 20.2475 
21.4956 18.6613 18.6612 
18.6614 21.6354 18.666 
18.6614 18.6659 21.6359 
18.6614 21.4814 21.4817 
ITEM: TIMESTEP
7043
ITEM: NUMBER OF ATOMS
18
ITEM: BOX BOUNDS pp pp pp
0.0000000000000000e+00 2.8712000000000000e+01
0.0000000000000000e+00 2.8712000000000000e+01
0.0000000000000000e+00 2.8712000000000000e+01
ITEM: ATOMS x y z 
18.6613 15.841 15.8408 
18.6613 18.6566 15.6867 
18.6613 15.687 18.6566 
15.8271 18.6611 18.6612 
16.8236 17.075 17.075 
18.6613 17.9123 17.9119 
18.6613 19.4101 19.4106 
17.2389 20.0598 17.2624 
20.0837 20.0599 17.2624 
17.2389 17.2624 20.06 
20.0838 17.2625 20.0601 
20.499 17.0751 17.0751 
16.8238 20.2472 20.2472 
20.4989 20.2472 20.2473 
21.4955 18.6612 18.6612 
18.6613 21.6353 18.6659 
18.6614 18.6658 21.6358 
18.6613 21.4814 21.4816 
ITEM: TIMESTEP
8041
ITEM: NUMBER OF ATOMS
18
ITEM: BOX BOUNDS pp pp pp
0.0000000000000000e+00 2.8712000000000000e+01
0.0000000000000000e+00 2.8712000000000000e+01
0.0000000000000000e+00 2.8712000000000000e+01
ITEM: ATOMS x y z 
15.6403 15.6401 15.3885 
18.6252 15.8274 15.8038 
15.8277 18.6249 15.8038 
17.2264 17.2262 14.392 
18.8125 18.8122 15.3885 
14.406 14.4059 17.2262 
15.6403 15.6401 19.0639 
17.2218 14.252 17.2262 
18.6252 15.8275 18.6486 
14.2519 17.2216 17.2263 
15.8276 18.6249 18.6486 
16.4772 16.4773 17.2263 
17.9756 17.9752 17.2262 
18.8124 18.8122 19.0638 
17.231 20.2004 17.2262 
20.0467 20.0464 17.2262 
17.2263 17.2262 20.0604 
20.2008 17.2308 17.2262 
ITEM: TIMESTEP
9043
ITEM: NUMBER OF ATOMS
18
ITEM: BOX BOUNDS pp pp pp
0.0000000000000000e+00 2.8712000000000000e+01
0.0000000000000000e+00 2.8712000000000000e+01
0.0000000000000000e+00 2.8712000000000000e+01
ITEM: ATOMS x y z 
15.6402 15.6401 15.3886 
18.625 15.8273 15.8039 
15.8276 18.6249 15.8038 
17.2263 17.2261 14.3921 
18.8124 18.8122 15.3885 
14.4059 14.4058 17.2262 
15.6402 15.6401 19.0637 
17.2216 14.2517 17.2262 
18.625 15.8273 18.6486 
14.2519 17.2215 17.2261 
15.8276 18.6249 18.6485 
16.4772 16.477 17.2262 
17.9752 17.9751 17.2262 
18.8124 18.8121 19.0638 
17.231 20.2005 17.2261 
20.0467 20.0464 17.2262 
17.2263 17.2261 20.0603 
20.2006 17.2307 17.2262 
ITEM: TIMESTEP
10044
ITEM: NUMBER OF ATOMS
18
ITEM: BOX BOUNDS pp pp pp
0.0000000000000000e+00 2.8712000000000000e+01
0.0000000000000000e+00 2.8712000000000000e+01
0.0000000000000000e+00 2.8712000000000000e+01
ITEM: ATOMS x y z 
15.6402 15.6399 15.3885 
18.6251 15.8272 15.8038 
15.8276 18.6249 15.8038 
17.2264 17.226 14.3921 
18.8126 18.8121 15.3885 
14.406 14.4057 17.2262 
15.6401 15.6399 19.0639 
17.2217 14.2516 17.2262 
18.6251 15.8272 18.6485 
14.2521 17.2215 17.2262 
15.8277 18.6249 18.6485 
16.4774 16.4768 17.2262 
17.9753 17.9753 17.2261 
18.8125 18.8121 19.0636 
17.2311 20.2005 17.2261 
20.0467 20.0464 17.2261 
17.2264 17.2261 20.0602 
20.2006 17.2306 17.2261 
ITEM: TIMESTEP
11071
ITEM: NUMBER OF ATOMS
18
ITEM: BOX BOUNDS pp pp pp
0.0000000000000000e+00 2.8712000000000000e+01
0.0000000000000000e+00 2.8712000000000000e+01
0.0000000000000000e+00 2.8712000000000000e+01
ITEM: ATOMS x y z 
18.6613 15.687 15.7959 
15.8271 18.6611 15.7913 
18.6614 18.6658 12.8168 
17.2388 17.2625 14.3925 
18.6613 19.4102 15.0421 
20.0838 17.2626 14.3925 
16.8236 20.2472 14.2053 
20.4992 20.2473 14.2052 
21.4956 18.6614 15.7912 
18.6613 21.4814 12.971 
18.6614 21.6355 15.7867 
18.6613 15.8411 18.6116 
16.8235 17.0753 17.3774 
18.6612 17.9124 16.5403 
18.6612 18.6568 18.7657 
17.2388 20.0598 17.1901 
20.0838 20.0601 17.19 
20.4991 17.0754 17.3773 
ITEM: TIMESTEP
12042
ITEM: NUMBER OF ATOMS
18
ITEM: BOX BOUNDS pp pp pp
0.0000000000000000e+00 2.8712000000000000e+01
0.0000000000000000e+00 2.8712000000000000e+01
0.0000000000000000e+00 2.8712000000000000e+01
ITEM: ATOMS x y z 
20.0963 20.0961 11.5225 
18.5102 18.51 12.5189 
17.2759 17.2757 14.3566 
19.3472 19.3472 14.3567 
20.0917 17.1218 14.3566 
17.1219 20.0915 14.3566 
18.5102 18.51 16.1942 
21.4951 18.6974 12.9342 
21.4951 18.6974 15.7789 
23.0707 20.1008 14.3565 
18.6975 21.4949 12.9342 
18.6975 21.4949 15.7789 
20.101 23.0705 14.3565 
20.8454 20.8452 14.3565 
21.6824 21.6822 12.519 
21.6824 21.6822 16.194 
22.9167 22.9165 14.3565 
20.0964 20.0961 17.1906 
ITEM: TIMESTEP
13044
ITEM: NUMBER OF ATOMS
18
ITEM: BOX BOUNDS pp pp pp
0.0000000000000000e+00 2.8712000000000000e+01
0.0000000000000000e+00 2.8712000000000000e+01
0.0000000000000000e+00 2.8712000000000000e+01
ITEM: ATOMS x y z 
17.2312 20.0961 11.3821 
20.0469 20.0961 11.5361 
15.8278 18.6737 12.9577 
15.6405 18.2585 15.9426 
14.2521 20.0961 14.3612 
16.4775 20.0962 15.1054 
18.8129 18.2584 12.7703 
17.2266 17.262 14.3564 
17.9756 20.0959 13.6074 
18.6254 18.6738 15.7552 
20.2009 20.0961 14.3518 
15.8277 21.5184 12.9577 
15.6403 21.9338 15.9427 
18.8125 21.9336 12.7704 
18.6253 21.5185 15.7553 
17.2264 22.9302 14.3565 
14.4062 20.096 17.1769 
17.2219 20.0961 17.3309 
ITEM: TIMESTEP
14040
ITEM: NUMBER OF ATOMS
18
ITEM: BOX BOUNDS pp pp pp
0.0000000000000000e+00 2.8712000000000000e+01
0.0000000000000000e+00 2.8712000000000000e+01
0.0000000000000000e+00 2.8712000000000000e+01
ITEM: ATOMS x y z 
17.2311 20.0961 11.382 
20.0467 20.0962 11.5361 
15.8277 18.6736 12.9576 
15.6404 18.2584 15.9425 
14.2521 20.096 14.3611 
16.4774 20.0961 15.1057 
18.8125 18.2586 12.7703 
17.2265 17.2621 14.3564 
17.9754 20.0961 13.6073 
18.6252 18.6738 15.7553 
20.2007 20.0962 14.3519 
15.8277 21.5184 12.9577 
15.6403 21.9337 15.9426 
18.8125 21.9337 12.7704 
18.6252 21.5185 15.7553 
17.2264 22.9302 14.3565 
14.4061 20.096 17.1769 
17.2219 20.0961 17.3309 
ITEM: TIMESTEP
15042
ITEM: NUMBER OF ATOMS
18
ITEM: BOX BOUNDS pp pp pp
0.0000000000000000e+00 2.8712000000000000e+01
0.0000000000000000e+00 2.8712000000000000e+01
0.0000000000000000e+00 2.8712000000000000e+01
ITEM: ATOMS x y z 
17.2311 20.0961 11.3818 
20.0467 20.0961 11.5359 
15.8277 18.6737 12.9576 
15.6404 18.2585 15.9425 
14.2522 20.096 14.3611 
16.4776 20.0961 15.1056 
18.8126 18.2585 12.7702 
17.2265 17.262 14.3564 
17.9752 20.0961 13.6072 
18.6251 18.6738 15.7552 
20.2006 20.0961 14.3517 
15.8277 21.5185 12.9576 
15.6403 21.9336 15.9425 
18.8125 21.9337 12.7703 
18.6251 21.5184 15.7552 
17.2264 22.9302 14.3564 
14.4061 20.096 17.1769 
17.2217 20.0961 17.331 
ITEM: TIMESTEP
16042
ITEM: NUMBER OF ATOMS
18
ITEM: BOX BOUNDS pp pp pp
0.0000000000000000e+00 2.8712000000000000e+01
0.0000000000000000e+00 2.8712000000000000e+01
0.0000000000000000e+00 2.8712000000000000e+01
ITEM: ATOMS x y z 
17.231 20.096 11.3819 
20.0467 20.096 11.536 
15.8277 18.6736 12.9576 
15.6403 18.2583 15.9426 
14.2521 20.096 14.361 
16.4775 20.0958 15.1054 
18.8124 18.2585 12.7703 
17.2264 17.2618 14.3565 
17.9755 20.0961 13.6073 
18.6252 18.6736 15.7552 
20.2008 20.0959 14.3517 
15.8278 21.5184 12.9575 
15.6405 21.9336 15.9424 
18.8125 21.9335 12.7702 
18.6252 21.5183 15.7552 
17.2265 22.9301 14.3563 
14.4062 20.096 17.1768 
17.2218 20.096 17.3308 
ITEM: TIMESTEP
17041
ITEM: NUMBER OF ATOMS
18
ITEM: BOX BOUNDS pp pp pp
0.0000000000000000e+00 2.8712000000000000e+01
0.0000000000000000e+00 2.8712000000000000e+01
0.0000000000000000e+00 2.8712000000000000e+01
ITEM: ATOMS x y z 
17.2311 20.0959 11.382 
20.0468 20.0958 11.5361 
15.8276 18.6736 12.9576 
15.6403 18.2584 15.9425 
14.2521 20.096 14.361 
16.4773 20.096 15.1056 
18.8125 18.2582 12.7703 
17.2263 17.2618 14.3564 
17.9755 20.0959 13.6073 
18.6251 18.6735 15.7552 
20.2008 20.0958 14.3518 
15.8277 21.5184 12.9576 
15.6405 21.9336 15.9424 
18.8127 21.9336 12.7702 
18.6252 21.5183 15.7551 
17.2265 22.9301 14.3563 
14.4062 20.0961 17.1767 
17.2218 20.096 17.3308 
ITEM: TIMESTEP
18042
ITEM: NUMBER OF ATOMS
18
ITEM: BOX BOUNDS pp pp pp
0.0000000000000000e+00 2.8712000000000000e+01
0.0000000000000000e+00 2.8712000000000000e+01
0.0000000000000000e+00 2.8712000000000000e+01
ITEM: ATOMS x y z 
17.2311 20.0959 11.382 
20.0469 20.0959 11.5361 
15.8277 18.6736 12.9577 
15.6404 18.2582 15.9427 
14.2521 20.0959 14.3611 
16.4773 20.0959 15.1055 
18.8125 18.2584 12.7704 
17.2265 17.2618 14.3564 
17.9756 20.0959 13.6073 
18.6253 18.6735 15.7552 
20.2009 20.0959 14.3517 
15.8278 21.5183 12.9576 
15.6406 21.9333 15.9425 
18.8126 21.9336 12.7703 
18.6253 21.5183 15.7552 
17.2265 22.93 14.3564 
14.4062 20.0959 17.1768 
17.2219 20.0959 17.3308 
ITEM: TIMESTEP
19042
ITEM: NUMBER OF ATOMS
18
ITEM: BOX BOUNDS pp pp pp
0.0000000000000000e+00 2.8712000000000000e+01
0.0000000000000000e+00 2.8712000000000000e+01
0.0000000000000000e+00 2.8712000000000000e+01
ITEM: ATOMS x y z 
17.2265 20.096 11.5224 
15.6404 18.5099 12.519 
14.4061 17.2756 14.3564 
15.6404 18.5098 16.194 
14.2521 20.0913 14.3564 
16.4773 19.3468 14.3564 
18.6253 18.6972 12.9341 
17.2218 17.1216 14.3564 
18.6253 18.6972 15.7788 
20.2009 20.1007 14.3565 
15.8278 21.4947 12.9341 
15.8278 21.4947 15.7788 
17.9757 20.8451 14.3566 
18.8126 21.6821 12.519 
18.8126 21.6821 16.194 
17.2312 23.0703 14.3565 
20.0468 22.9165 14.3565 
17.2266 20.096 17.1905 
ITEM: TIMESTEP
20043
ITEM: NUMBER OF ATOMS
18
ITEM: BOX BOUNDS pp pp pp
0.0000000000000000e+00 2.8712000000000000e+01
0.0000000000000000e+00 2.8712000000000000e+01
0.0000000000000000e+00 2.8712000000000000e+01
ITEM: ATOMS x y z 
15.7917 15.8269 15.7913 
15.7962 18.6611 12.8171 
12.8172 18.6611 15.796 
14.3928 17.2387 14.3926 
14.3928 20.0835 14.3926 
16.5409 18.6612 15.0424 
18.612 18.6612 12.9711 
17.3778 16.8234 14.2052 
18.7662 18.6611 15.7867 
17.3777 20.4988 14.2053 
15.7916 21.4953 15.7914 
15.0425 18.6611 16.5402 
12.9713 18.6611 18.6117 
14.2055 16.8234 17.3775 
15.7871 18.6611 18.7656 
14.2055 20.4987 17.3775 
17.1905 17.2387 17.1901 
17.1905 20.0835 17.1901 
ITEM: TIMESTEP
21055
ITEM: NUMBER OF ATOMS
18
ITEM: BOX BOUNDS pp pp pp
0.0000000000000000e+00 2.8712000000000000e+01
0.0000000000000000e+00 2.8712000000000000e+01
0.0000000000000000e+00 2.8712000000000000e+01
ITEM: ATOMS x y z 
15.7915 15.8269 15.7913 
15.7961 18.6612 12.8168 
12.8175 18.6613 15.7959 
14.3929 17.2388 14.3925 
14.3928 20.0836 14.3925 
16.5405 18.6611 15.042 
18.6118 18.6611 12.971 
17.3777 16.8234 14.2052 
18.7657 18.6611 15.7867 
17.3777 20.4988 14.2052 
15.7916 21.4954 15.7913 
15.0427 18.6613 16.5408 
12.9714 18.6613 18.6117 
14.2055 16.8237 17.3773 
15.787 18.6612 18.7659 
14.2055 20.4989 17.3773 
17.1902 17.2387 17.1901 
17.1904 20.0836 17.1901 
ITEM: TIMESTEP
22043
ITEM: NUMBER OF ATOMS
18
ITEM: BOX BOUNDS pp pp pp
0.0000000000000000e+00 2.8712000000000000e+01
0.0000000000000000e+00 2.8712000000000000e+01
0.0000000000000000e+00 2.8712000000000000e+01
ITEM: ATOMS x y z 
12.7706 18.5099 15.3888 
14.3567 20.096 14.3923 
15.7555 18.6972 15.804 
12.9579 21.4947 15.804 
15.9427 21.682 15.3888 
11.5364 17.2756 17.2263 
11.3825 20.0912 17.2263 
12.7706 18.5097 19.064 
14.3521 17.1214 17.2263 
15.7555 18.6972 18.6487 
14.3567 20.0959 20.0605 
13.6079 19.3466 17.2262 
17.3309 20.1007 17.2263 
15.1055 20.8454 17.2263 
12.958 21.4947 18.6487 
15.9428 21.682 19.064 
14.3612 23.0705 17.2264 
17.177 22.9164 17.2264 
ITEM: TIMESTEP
23044
ITEM: NUMBER OF ATOMS
18
ITEM: BOX BOUNDS pp pp pp
0.0000000000000000e+00 2.8712000000000000e+01
0.0000000000000000e+00 2.8712000000000000e+01
0.0000000000000000e+00 2.8712000000000000e+01
ITEM: ATOMS x y z 
15.804 18.6971 18.6974 
14.3923 20.0959 20.0962 
18.6488 18.6972 18.6974 
17.2264 20.1005 17.1218 
17.2264 17.1216 20.1008 
20.0605 20.096 20.0961 
15.3889 21.682 18.5102 
17.2264 20.8449 19.3471 
19.064 21.682 18.5101 
17.2264 22.9163 17.2758 
17.2265 23.0703 20.0915 
15.3888 18.5099 21.6822 
17.2263 19.347 20.8452 
19.0641 18.5099 21.6823 
17.2264 17.2756 22.9165 
17.2263 20.0914 23.0705 
15.804 21.4947 21.4949 
18.6488 21.4948 21.4949 
ITEM: TIMESTEP
24043
ITEM: NUMBER OF ATOMS
18
ITEM: BOX BOUNDS pp pp pp
0.0000000000000000e+00 2.8712000000000000e+01
0.0000000000000000e+00 2.8712000000000000e+01
0.0000000000000000e+00 2.8712000000000000e+01
ITEM: ATOMS x y z 
15.804 18.6971 18.6974 
14.3923 20.096 20.0962 
18.6487 18.6971 18.6975 
17.2264 20.1005 17.1217 
17.2263 17.1216 20.1009 
20.0604 20.0959 20.0962 
15.3888 21.6821 18.51 
17.2263 20.8448 19.3471 
19.0641 21.682 18.51 
17.2264 22.9162 17.2757 
17.2264 23.0702 20.0916 
15.3888 18.5099 21.6823 
17.2263 19.3469 20.8455 
19.0638 18.5099 21.6823 
17.2263 17.2756 22.9166 
17.2263 20.0913 23.0707 
15.804 21.4948 21.495 
18.6487 21.4947 21.495 
ITEM: TIMESTEP
25041
ITEM: NUMBER OF ATOMS
18
ITEM: BOX BOUNDS pp pp pp
0.0000000000000000e+00 2.8712000000000000e+01
0.0000000000000000e+00 2.8712000000000000e+01
0.0000000000000000e+00 2.8712000000000000e+01
ITEM: ATOMS x y z 
18.6612 18.661 18.6968 
17.2625 17.2623 20.1086 
20.2473 17.075 19.6934 
20.06 20.0598 20.1086 
17.0751 20.2472 19.6933 
18.6659 15.6866 21.531 
21.4816 15.8407 21.531 
15.6869 18.6657 21.531 
17.9122 19.4101 21.5309 
19.4103 17.9118 21.5311 
17.2625 17.2623 22.9534 
18.6613 18.6611 24.3651 
20.2475 17.0749 23.3686 
17.0752 20.2471 23.3685 
20.06 20.0598 22.9534 
21.6355 18.6564 21.531 
15.841 21.4815 21.5309 
18.6566 21.6354 21.5309 
ITEM: TIMESTEP
26040
ITEM: NUMBER OF ATOMS
18
ITEM: BOX BOUNDS pp pp pp
0.0000000000000000e+00 2.8712000000000000e+01
0.0000000000000000e+00 2.8712000000000000e+01
0.0000000000000000e+00 2.8712000000000000e+01
ITEM: ATOMS x y z 
18.6613 18.6612 18.6967 
17.2625 17.2624 20.1085 
20.2473 17.075 19.6932 
20.06 20.06 20.1085 
17.0753 20.2473 19.6933 
18.6658 15.6867 21.5309 
21.4815 15.8408 21.5309 
15.6871 18.6659 21.5309 
17.9122 19.4105 21.5308 
19.4102 17.9119 21.5309 
17.2625 17.2624 22.9533 
18.6613 18.6611 24.365 
20.2474 17.075 23.3685 
17.0753 20.2473 23.3685 
20.06 20.0599 22.9533 
21.6355 18.6565 21.5309 
15.8411 21.4816 21.5309 
18.6567 21.6356 21.5309 
ITEM: TIMESTEP
27050
ITEM: NUMBER OF ATOMS
18
ITEM: BOX BOUNDS pp pp pp
0.0000000000000000e+00 2.8712000000000000e+01
0.0000000000000000e+00 2.8712000000000000e+01
0.0000000000000000e+00 2.8712000000000000e+01
ITEM: ATOMS x y z 
18.666 18.6612 18.5568 
17.2626 17.2388 20.1323 
20.2474 16.8236 19.9449 
20.2474 20.4988 19.9448 
17.2625 20.0835 20.1322 
21.4817 18.6611 18.7106 
18.6614 15.827 21.531 
15.6868 18.6611 21.5356 
15.8409 18.6612 24.3512 
17.9119 18.6612 22.2799 
19.4108 18.6612 20.7822 
17.0753 16.8236 23.1171 
18.6567 18.6612 24.5052 
20.0602 17.2388 22.9298 
20.0601 20.0835 22.9298 
17.0753 20.4987 23.1171 
21.6359 18.6612 21.5264 
18.6613 21.4952 21.531 
ITEM: TIMESTEP
28040
ITEM: NUMBER OF ATOMS
18
ITEM: BOX BOUNDS pp pp pp
0.0000000000000000e+00 2.8712000000000000e+01
0.0000000000000000e+00 2.8712000000000000e+01
0.0000000000000000e+00 2.8712000000000000e+01
ITEM: ATOMS x y z 
18.6976 15.8039 18.6971 
20.0963 14.3921 20.0958 
21.6824 15.3887 18.5097 
18.6976 18.6487 18.6971 
17.122 17.2262 20.1005 
20.101 17.2263 17.1215 
20.0964 20.0604 20.0959 
20.8454 17.2264 19.3467 
21.6825 19.064 18.5097 
22.9167 17.2264 17.2755 
23.0707 17.2264 20.0912 
18.5103 15.3887 21.6819 
21.4951 15.8039 21.4946 
18.5103 19.0639 21.682 
19.3473 17.2262 20.845 
17.276 17.2262 22.9162 
20.0917 17.2262 23.0702 
21.4951 18.6487 21.4947 
ITEM: TIMESTEP
29041
ITEM: NUMBER OF ATOMS
18
ITEM: BOX BOUNDS pp pp pp
0.0000000000000000e+00 2.8712000000000000e+01
0.0000000000000000e+00 2.8712000000000000e+01
0.0000000000000000e+00 2.8712000000000000e+01
ITEM: ATOMS x y z 
18.6976 15.8039 18.6972 
20.0964 14.3921 20.0959 
21.6824 15.3887 18.5098 
18.6976 18.6487 18.6972 
17.122 17.2263 20.1006 
20.1009 17.2263 17.1215 
20.0964 20.0604 20.0959 
20.8453 17.2264 19.3467 
21.6825 19.064 18.5099 
22.9166 17.2264 17.2755 
23.0707 17.2264 20.0912 
18.5103 15.3886 21.682 
21.4951 15.8039 21.4947 
18.5102 19.064 21.6821 
19.3475 17.2262 20.845 
17.2761 17.2262 22.9163 
20.0918 17.2262 23.0704 
21.4951 18.6487 21.4947 
ITEM: TIMESTEP
30048
ITEM: NUMBER OF ATOMS
18
ITEM: BOX BOUNDS pp pp pp
0.0000000000000000e+00 2.8712000000000000e+01
0.0000000000000000e+00 2.8712000000000000e+01
0.0000000000000000e+00 2.8712000000000000e+01
ITEM: ATOMS x y z 
18.6974 15.8038 18.6972 
20.096 14.3921 20.0961 
21.6821 15.3887 18.51 
18.6974 18.6486 18.6972 
17.1217 17.2262 20.1006 
20.1009 17.2262 17.1216 
20.0962 20.0603 20.096 
20.8453 17.2263 19.347 
21.6823 19.0637 18.51 
22.9165 17.2262 17.2758 
23.0705 17.2263 20.0914 
18.51 15.3886 21.6821 
21.4948 15.8038 21.4948 
18.5103 19.0637 21.6821 
19.3469 17.2261 20.845 
17.2758 17.2262 22.9164 
20.0914 17.2262 23.0704 
21.4949 18.6486 21.4948 
ITEM: TIMESTEP
31037
ITEM: NUMBER OF ATOMS
18
ITEM: BOX BOUNDS pp pp pp
0.0000000000000000e+00 2.8712000000000000e+01
0.0000000000000000e+00 2.8712000000000000e+01
0.0000000000000000e+00 2.8712000000000000e+01
ITEM: ATOMS x y z 
18.6613 18.6612 18.6969 
17.2625 17.2624 20.1087 
20.0602 20.0599 20.1086 
17.0751 20.2472 19.6934 
20.2475 17.0751 19.6934 
18.6661 15.687 21.5311 
21.4819 15.841 21.531 
15.6869 18.6658 21.531 
17.9121 19.4102 21.531 
19.4108 17.9123 21.5311 
17.2626 17.2624 22.9535 
18.6615 18.6612 24.3652 
20.2477 17.0751 23.3688 
20.0603 20.06 22.9534 
17.0753 20.2472 23.3686 
21.636 18.6566 21.531 
15.8409 21.4814 21.531 
18.6567 21.6354 21.531 
ITEM: TIMESTEP
32041
ITEM: NUMBER OF ATOMS
23
ITEM: BOX BOUNDS pp pp pp
0.0000000000000000e+00 2.8712000000000000e+01
0.0000000000000000e+00 2.8712000000000000e+01
0.0000000000000000e+00 2.8712000000000000e+01
ITEM: ATOMS x y z 
15.8501 18.6804 18.7197 
18.6336 18.6827 18.5772 
17.1506 16.9745 20.0204 
20.048 20.0639 20.1368 
17.0534 20.5023 19.9231 
20.066 17.2453 20.0403 
18.709 15.8227 21.5788 
18.6946 15.8226 24.3797 
21.5101 15.8225 21.5644 
15.7074 18.6828 21.5033 
18.0458 18.8333 20.9155 
19.4521 18.0417 22.3219 
17.1705 17.2454 22.9357 
18.6816 18.6593 24.4963 
20.053 20.214 22.9226 
17.2671 20.064 22.9177 
20.7114 16.8788 23.5812 
21.6267 18.6592 21.5513 
21.5241 18.851 24.3937 
23.05 17.196 22.996 
21.7482 15.3231 24.6177 
20.1263 17.196 25.9196 
22.8975 17.2006 25.7671 
ITEM: TIMESTEP
33041
ITEM: NUMBER OF ATOMS
18
ITEM: BOX BOUNDS pp pp pp
0.0000000000000000e+00 2.8712000000000000e+01
0.0000000000000000e+00 2.8712000000000000e+01
0.0000000000000000e+00 2.8712000000000000e+01
ITEM: ATOMS x y z 
18.6969 15.7913 24.4007 
20.1086 14.3926 23.0019 
21.531 15.796 21.4263 
21.5311 12.817 24.4053 
22.9535 14.3926 23.002 
24.3653 15.7913 24.4007 
19.6934 17.3774 22.8147 
21.531 16.5404 23.6516 
21.531 18.6116 21.5805 
21.5311 18.7657 24.3961 
23.3687 17.3774 22.8147 
19.6936 14.2053 25.9866 
21.5311 15.0422 25.1499 
21.5311 12.971 27.2209 
21.5311 15.7867 27.375 
23.3687 14.2053 25.9867 
20.1087 17.1901 25.7994 
22.9535 17.1901 25.7994 
ITEM: TIMESTEP
34041
ITEM: NUMBER OF ATOMS
18
ITEM: BOX BOUNDS pp pp pp
0.0000000000000000e+00 2.8712000000000000e+01
0.0000000000000000e+00 2.8712000000000000e+01
0.0000000000000000e+00 2.8712000000000000e+01
ITEM: ATOMS x y z 
18.6969 15.7913 24.4007 
20.1086 14.3925 23.002 
21.531 15.7959 21.4264 
21.531 12.8169 24.4053 
22.9534 14.3925 23.002 
24.3652 15.7913 24.4007 
19.6934 17.3774 22.8147 
21.5311 16.5405 23.6517 
21.531 18.6117 21.5805 
21.531 18.7658 24.3961 
23.3685 17.3774 22.8147 
19.6934 14.2052 25.9868 
21.531 15.0423 25.1496 
21.5311 12.9709 27.221 
21.5311 15.7866 27.375 
23.3687 14.2051 25.9868 
20.1087 17.1901 25.7994 
22.9534 17.1901 25.7994 
ITEM: TIMESTEP
35043
ITEM: NUMBER OF ATOMS
18
ITEM: BOX BOUNDS pp pp pp
0.0000000000000000e+00 2.8712000000000000e+01
0.0000000000000000e+00 2.8712000000000000e+01
0.0000000000000000e+00 2.8712000000000000e+01
ITEM: ATOMS x y z 
20.0963 17.226 20.1317 
18.6975 15.8273 21.5435 
18.6975 15.8273 24.3882 
20.1009 14.2517 22.9658 
21.6825 15.6399 21.1281 
22.9167 14.4057 22.9658 
18.5102 18.8122 21.1283 
19.3472 17.975 22.9658 
17.1218 17.2308 22.9658 
20.0916 20.2004 22.9659 
17.2759 20.0465 22.9658 
20.8453 16.4771 22.9657 
21.4951 18.6249 21.5435 
21.495 18.6248 24.3882 
23.0707 17.2215 22.9658 
21.6823 15.6401 24.8033 
18.5101 18.8122 24.8034 
20.0962 17.2261 25.7999 
ITEM: TIMESTEP
36039
ITEM: NUMBER OF ATOMS
18
ITEM: BOX BOUNDS pp pp pp
0.0000000000000000e+00 2.8712000000000000e+01
0.0000000000000000e+00 2.8712000000000000e+01
0.0000000000000000e+00 2.8712000000000000e+01
ITEM: ATOMS x y z 
20.0964 17.2263 20.1316 
18.6976 15.8274 21.5433 
18.6976 15.8274 24.3881 
20.101 14.2517 22.9657 
21.6825 15.6401 21.128 
22.9166 14.4058 22.9657 
18.5103 18.8123 21.1281 
19.3474 17.9756 22.9657 
17.1222 17.2308 22.9657 
20.0918 20.2007 22.9657 
17.2761 20.0465 22.9657 
20.8453 16.4769 22.9658 
21.4951 18.6251 21.5433 
21.4951 18.625 24.3882 
23.0706 17.2216 22.9657 
21.6824 15.64 24.8033 
18.5103 18.8122 24.8033 
20.0964 17.2261 25.7999 
ITEM: TIMESTEP
37044
ITEM: NUMBER OF ATOMS
18
ITEM: BOX BOUNDS pp pp pp
0.0000000000000000e+00 2.8712000000000000e+01
0.0000000000000000e+00 2.8712000000000000e+01
0.0000000000000000e+00 2.8712000000000000e+01
ITEM: ATOMS x y z 
15.8041 18.6973 18.6972 
14.3923 20.096 20.096 
18.6489 18.6973 18.6972 
17.2265 20.1007 17.1217 
17.2265 17.1217 20.1006 
20.0607 20.096 20.0959 
15.3888 21.6822 18.5099 
17.2265 20.8451 19.347 
19.0642 21.6822 18.5098 
17.2265 22.9164 17.2757 
17.2265 23.0705 20.0914 
15.389 18.5099 21.6819 
17.2266 19.3471 20.8451 
19.0641 18.5099 21.682 
17.2265 17.2757 22.9163 
17.2265 20.0914 23.0704 
15.8041 21.4948 21.4947 
18.6489 21.4948 21.4947 
ITEM: TIMESTEP
38042
ITEM: NUMBER OF ATOMS
18
ITEM: BOX BOUNDS pp pp pp
0.0000000000000000e+00 2.8712000000000000e+01
0.0000000000000000e+00 2.8712000000000000e+01
0.0000000000000000e+00 2.8712000000000000e+01
ITEM: ATOMS x y z 
15.7915 18.6611 18.6966 
14.2054 17.0749 19.6931 
14.3927 20.0598 20.1084 
17.1904 17.2624 20.1084 
17.3776 20.2472 19.6932 
12.9713 15.8407 21.5308 
15.787 15.6868 21.5308 
12.8171 18.6564 21.5308 
15.0424 17.9121 21.5308 
14.2055 17.0749 23.3685 
14.3928 20.0598 22.9531 
15.7916 18.6611 24.365 
16.5408 19.4102 21.5308 
18.766 18.6658 21.5308 
17.1904 17.2624 22.9532 
17.3777 20.2471 23.3683 
15.7962 21.6354 21.5308 
18.6119 21.4814 21.5308 
ITEM: TIMESTEP
39068
ITEM: NUMBER OF ATOMS
18
ITEM: BOX BOUNDS pp pp pp
0.0000000000000000e+00 2.8712000000000000e+01
0.0000000000000000e+00 2.8712000000000000e+01
0.0000000000000000e+00 2.8712000000000000e+01
ITEM: ATOMS x y z 
12.922 12.971 15.8407 
12.922 15.7868 15.6868 
10.0879 15.7915 18.6611 
11.0843 14.2054 17.075 
11.4996 14.3926 20.0598 
12.922 12.8169 18.6564 
12.9221 15.0423 17.9122 
14.7597 14.2052 17.0749 
15.7561 15.7912 18.6611 
14.3443 14.3925 20.0598 
11.4997 17.1903 17.2624 
11.0843 17.3775 20.2473 
12.922 18.7658 18.6658 
14.3444 17.1902 17.2625 
12.9219 16.5404 19.41 
14.7596 17.3774 20.2472 
12.922 15.7959 21.6354 
12.922 18.6117 21.4815 
ITEM: TIMESTEP
40044
ITEM: NUMBER OF ATOMS
18
ITEM: BOX BOUNDS pp pp pp
0.0000000000000000e+00 2.8712000000000000e+01
0.0000000000000000e+00 2.8712000000000000e+01
0.0000000000000000e+00 2.8712000000000000e+01
ITEM: ATOMS x y z 
10.1014 15.7914 15.8408 
12.9171 15.7913 15.6868 
9.94733 15.7914 18.6565 
11.3356 13.9538 17.075 
11.5229 14.369 20.0599 
12.1725 15.7914 17.9121 
12.9217 12.9573 18.6612 
14.3205 14.369 17.2624 
15.8961 15.7914 18.6659 
14.5078 13.9538 20.2473 
13.6709 15.7914 19.4103 
11.3356 17.629 17.075 
11.5229 17.2138 20.0599 
12.9217 18.6256 18.6611 
14.3205 17.2138 17.2624 
14.5078 17.6291 20.2473 
12.9263 15.7914 21.6355 
15.742 15.7915 21.4815 
ITEM: TIMESTEP
41042
ITEM: NUMBER OF ATOMS
18
ITEM: BOX BOUNDS pp pp pp
0.0000000000000000e+00 2.8712000000000000e+01
0.0000000000000000e+00 2.8712000000000000e+01
0.0000000000000000e+00 2.8712000000000000e+01
ITEM: ATOMS x y z 
10.0646 15.8275 15.8275 
12.9093 15.8276 15.8276 
9.64942 18.8123 15.6402 
11.487 17.231 14.2519 
11.487 20.0466 14.4059 
13.3246 18.8123 15.6403 
9.64932 15.6401 18.8124 
11.4869 14.2519 17.231 
11.487 14.4059 20.0467 
13.3247 15.6402 18.8125 
11.487 16.4773 17.9753 
8.65294 17.2263 17.2263 
10.0647 18.625 18.6251 
11.4871 17.9753 16.4772 
11.4871 20.2006 17.2216 
11.4871 17.2216 20.2007 
12.9094 18.6251 18.6251 
14.3211 17.2263 17.2264 
ITEM: TIMESTEP
42041
ITEM: NUMBER OF ATOMS
18
ITEM: BOX BOUNDS pp pp pp
0.0000000000000000e+00 2.8712000000000000e+01
0.0000000000000000e+00 2.8712000000000000e+01
0.0000000000000000e+00 2.8712000000000000e+01
ITEM: ATOMS x y z 
9.90084 15.3888 15.6402 
12.8857 15.804 15.8274 
8.66655 17.2265 14.406 
9.90086 19.064 15.6404 
11.4823 17.2264 14.2519 
12.8858 18.6487 15.8275 
10.0881 15.804 18.6251 
11.4869 14.3923 17.2262 
13.0731 15.3886 18.8124 
8.51261 17.2264 17.2217 
10.0882 18.6487 18.6252 
10.738 17.2264 16.4772 
11.4871 20.0604 17.2264 
11.4916 17.2263 20.2007 
12.2359 17.2263 17.9753 
13.0732 19.064 18.8125 
14.4614 17.2263 17.2309 
14.3073 17.2262 20.0467 
ITEM: TIMESTEP
43041
ITEM: NUMBER OF ATOMS
18
ITEM: BOX BOUNDS pp pp pp
0.0000000000000000e+00 2.8712000000000000e+01
0.0000000000000000e+00 2.8712000000000000e+01
0.0000000000000000e+00 2.8712000000000000e+01
ITEM: ATOMS x y z 
9.90087 15.3888 15.6401 
12.8858 15.8039 15.8274 
8.66658 17.2264 14.4061 
9.90095 19.0639 15.6403 
11.4824 17.2264 14.252 
12.8859 18.6486 15.8275 
10.0882 15.8038 18.625 
11.487 14.3922 17.2262 
13.0731 15.3886 18.8123 
8.5126 17.2263 17.2217 
10.0883 18.6486 18.6251 
10.7377 17.2263 16.4772 
11.4871 20.0603 17.2264 
11.4917 17.2261 20.2005 
12.2364 17.2261 17.9753 
13.0732 19.0637 18.8124 
14.4615 17.2262 17.2309 
14.3075 17.2261 20.0465 
ITEM: TIMESTEP
44040
ITEM: NUMBER OF ATOMS
18
ITEM: BOX BOUNDS pp pp pp
0.0000000000000000e+00 2.8712000000000000e+01
0.0000000000000000e+00 2.8712000000000000e+01
0.0000000000000000e+00 2.8712000000000000e+01
ITEM: ATOMS x y z 
9.90093 15.3887 15.6401 
12.8858 15.8039 15.8274 
8.66655 17.2264 14.406 
9.90085 19.064 15.6402 
11.4824 17.2263 14.252 
12.8858 18.6487 15.8275 
10.0882 15.8038 18.625 
11.487 14.3921 17.2262 
13.0731 15.3886 18.8122 
8.51249 17.2262 17.2216 
10.0882 18.6485 18.625 
10.7379 17.2263 16.4774 
11.487 20.0604 17.2263 
11.4916 17.2261 20.2005 
12.2362 17.2262 17.9752 
13.0731 19.0637 18.8122 
14.4615 17.2262 17.2308 
14.3075 17.2261 20.0465 
ITEM: TIMESTEP
45039
ITEM: NUMBER OF ATOMS
18
ITEM: BOX BOUNDS pp pp pp
0.0000000000000000e+00 2.8712000000000000e+01
0.0000000000000000e+00 2.8712000000000000e+01
0.0000000000000000e+00 2.8712000000000000e+01
ITEM: ATOMS x y z 
9.90094 15.3885 15.6401 
12.8858 15.8038 15.8274 