ITEM: TIMESTEP
0
ITEM: NUMBER OF ATOMS
2000
ITEM: BOX BOUNDS pp pp pp
0.0000000000000000e+00 2.8712000000000000e+01
0.0000000000000000e+00 2.8712000000000000e+01
0.0000000000000000e+00 2.8712000000000000e+01
ITEM: ATOMS x y z 
0 0 0 
1.4356 1.4356 1.4356 
2.8712 4.56992e-17 4.33394e-17 
4.37463e-17 2.8712 4.79126e-17 
2.8712 2.8712 1.48099e-16 
4.27047e-17 4.79126e-17 2.8712 
2.8712 1.53437e-16 2.8712 
1.45821e-16 2.8712 2.8712 
2.8712 2.8712 2.8712 
4.3068 1.4356 1.4356 
5.7424 3.74968e-17 3.56741e-17 
7.178 1.4356 1.4356 
5.7424 2.8712 1.74855e-16 
5.7424 1.74855e-16 2.8712 
5.7424 2.8712 2.8712 
8.6136 3.33305e-17 3.91894e-17 
10.0492 1.4356 1.4356 
11.4848 0 0 
8.6136 2.8712 2.9034e-17 
11.4848 2.8712 0 
8.6136 3.61948e-17 2.8712 
11.4848 0 2.8712 
8.6136 2.8712 2.8712 
11.4848 2.8712 2.8712 
12.9204 1.4356 1.4356 
14.356 5.83284e-17 5.65056e-17 
15.7916 1.4356 1.4356 
14.356 2.8712 0 
14.356 0 2.8712 
14.356 2.8712 2.8712 
17.2272 0 0 
18.6628 1.4356 1.4356 
20.0984 0 0 
17.2272 2.8712 0 
20.0984 2.8712 0 
17.2272 0 2.8712 
20.0984 0 2.8712 
17.2272 2.8712 2.8712 
20.0984 2.8712 2.8712 
21.534 1.4356 1.4356 
22.9696 0 0 
24.4052 1.4356 1.4356 
22.9696 2.8712 0 
22.9696 0 2.8712 
22.9696 2.8712 2.8712 
25.8408 0 0 
27.2764 1.4356 1.4356 
25.8408 2.8712 0 
25.8408 0 2.8712 
25.8408 2.8712 2.8712 
1.4356 4.3068 1.4356 
3.33305e-17 5.7424 4.53087e-17 
1.4356 7.178 1.4356 
2.8712 5.7424 1.70689e-16 
1.64569e-16 5.7424 2.8712 
2.8712 5.7424 2.8712 
4.3068 4.3068 1.4356 
7.178 4.3068 1.4356 
4.3068 7.178 1.4356 
5.7424 5.7424 1.70819e-16 
7.178 7.178 1.4356 
5.7424 5.7424 2.8712 
10.0492 4.3068 1.4356 
8.6136 5.7424 2.91642e-17 
10.0492 7.178 1.4356 
11.4848 5.7424 0 
8.6136 5.7424 2.8712 
11.4848 5.7424 2.8712 
12.9204 4.3068 1.4356 
15.7916 4.3068 1.4356 
12.9204 7.178 1.4356 
14.356 5.7424 0 
15.7916 7.178 1.4356 
14.356 5.7424 2.8712 
18.6628 4.3068 1.4356 
17.2272 5.7424 0 
18.6628 7.178 1.4356 
20.0984 5.7424 0 
17.2272 5.7424 2.8712 
20.0984 5.7424 2.8712 
21.534 4.3068 1.4356 
24.4052 4.3068 1.4356 
21.534 7.178 1.4356 
22.9696 5.7424 0 
24.4052 7.178 1.4356 
22.9696 5.7424 2.8712 
27.2764 4.3068 1.4356 
25.8408 5.7424 0 
27.2764 7.178 1.4356 
25.8408 5.7424 2.8712 
2.91642e-17 8.6136 4.24443e-17 
1.4356 10.0492 1.4356 
2.8712 8.6136 4.56992e-17 
0 11.4848 0 
2.8712 11.4848 0 
2.66904e-17 8.6136 2.8712 
2.8712 8.6136 2.8712 
0 11.4848 2.8712 
2.8712 11.4848 2.8712 
4.3068 10.0492 1.4356 
5.7424 8.6136 4.58294e-17 
7.178 10.0492 1.4356 
5.7424 11.4848 0 
5.7424 8.6136 2.8712 
5.7424 11.4848 2.8712 
8.6136 8.6136 0 
10.0492 10.0492 1.4356 
11.4848 8.6136 4.58294e-17 
8.6136 11.4848 4.58294e-17 
11.4848 11.4848 0 
8.6136 8.6136 2.8712 
11.4848 8.6136 2.8712 
8.6136 11.4848 2.8712 
11.4848 11.4848 2.8712 
12.9204 10.0492 1.4356 
14.356 8.6136 0 
15.7916 10.0492 1.4356 
14.356 11.4848 1.74985e-16 
14.356 8.6136 2.8712 
14.356 11.4848 2.8712 
17.2272 8.6136 5.41621e-17 
18.6628 10.0492 1.4356 
20.0984 8.6136 6.6661e-17 
17.2272 11.4848 0 
20.0984 11.4848 0 
17.2272 8.6136 2.8712 
20.0984 8.6136 2.8712 
17.2272 11.4848 2.8712 
20.0984 11.4848 2.8712 
21.534 10.0492 1.4356 
22.9696 8.6136 3.74968e-17 
24.4052 10.0492 1.4356 
22.9696 11.4848 0 
22.9696 8.6136 2.8712 
22.9696 11.4848 2.8712 
25.8408 8.6136 6.87442e-17 
27.2764 10.0492 1.4356 
25.8408 11.4848 0 
25.8408 8.6136 2.8712 
25.8408 11.4848 2.8712 
1.4356 12.9204 1.4356 
4.99958e-17 14.356 4.11423e-17 
1.4356 15.7916 1.4356 
2.8712 14.356 0 
0 14.356 2.8712 
2.8712 14.356 2.8712 
4.3068 12.9204 1.4356 
7.178 12.9204 1.4356 
4.3068 15.7916 1.4356 
5.7424 14.356 0 
7.178 15.7916 1.4356 
5.7424 14.356 2.8712 
10.0492 12.9204 1.4356 
8.6136 14.356 0 
10.0492 15.7916 1.4356 
11.4848 14.356 1.74985e-16 
8.6136 14.356 2.8712 
11.4848 14.356 2.8712 
12.9204 12.9204 1.4356 
15.7916 12.9204 1.4356 
12.9204 15.7916 1.4356 
14.356 14.356 0 
15.7916 15.7916 1.4356 
14.356 14.356 2.8712 
18.6628 12.9204 1.4356 
17.2272 14.356 1.62486e-16 
18.6628 15.7916 1.4356 
20.0984 14.356 1.87484e-16 
17.2272 14.356 2.8712 
20.0984 14.356 2.8712 
21.534 12.9204 1.4356 
24.4052 12.9204 1.4356 
21.534 15.7916 1.4356 
22.9696 14.356 1.45821e-16 
24.4052 15.7916 1.4356 
22.9696 14.356 2.8712 
27.2764 12.9204 1.4356 
25.8408 14.356 1.83318e-16 
27.2764 15.7916 1.4356 
25.8408 14.356 2.8712 
0 17.2272 0 
1.4356 18.6628 1.4356 
2.8712 17.2272 0 
0 20.0984 0 
2.8712 20.0984 0 
0 17.2272 2.8712 
2.8712 17.2272 2.8712 
0 20.0984 2.8712 
2.8712 20.0984 2.8712 
4.3068 18.6628 1.4356 
5.7424 17.2272 0 
7.178 18.6628 1.4356 
5.7424 20.0984 0 
5.7424 17.2272 2.8712 
5.7424 20.0984 2.8712 
8.6136 17.2272 5.41621e-17 
10.0492 18.6628 1.4356 
11.4848 17.2272 0 
8.6136 20.0984 6.6661e-17 
11.4848 20.0984 0 
8.6136 17.2272 2.8712 
11.4848 17.2272 2.8712 
8.6136 20.0984 2.8712 
11.4848 20.0984 2.8712 
12.9204 18.6628 1.4356 
14.356 17.2272 1.83318e-16 
15.7916 18.6628 1.4356 
14.356 20.0984 1.83318e-16 
14.356 17.2272 2.8712 
14.356 20.0984 2.8712 
17.2272 17.2272 0 
18.6628 18.6628 1.4356 
20.0984 17.2272 0 
17.2272 20.0984 0 
20.0984 20.0984 0 
17.2272 17.2272 2.8712 
20.0984 17.2272 2.8712 
17.2272 20.0984 2.8712 
20.0984 20.0984 2.8712 
21.534 18.6628 1.4356 
22.9696 17.2272 0 
24.4052 18.6628 1.4356 
22.9696 20.0984 0 
22.9696 17.2272 2.8712 
22.9696 20.0984 2.8712 
25.8408 17.2272 0 
27.2764 18.6628 1.4356 
25.8408 20.0984 0 
25.8408 17.2272 2.8712 
25.8408 20.0984 2.8712 
1.4356 21.534 1.4356 
0 22.9696 0 
1.4356 24.4052 1.4356 
2.8712 22.9696 0 
0 22.9696 2.8712 
2.8712 22.9696 2.8712 
4.3068 21.534 1.4356 
7.178 21.534 1.4356 
4.3068 24.4052 1.4356 
5.7424 22.9696 0 
7.178 24.4052 1.4356 
5.7424 22.9696 2.8712 
10.0492 21.534 1.4356 
8.6136 22.9696 2.91642e-17 
10.0492 24.4052 1.4356 
11.4848 22.9696 0 
8.6136 22.9696 2.8712 
11.4848 22.9696 2.8712 
12.9204 21.534 1.4356 
15.7916 21.534 1.4356 
12.9204 24.4052 1.4356 
14.356 22.9696 1.45821e-16 
15.7916 24.4052 1.4356 
14.356 22.9696 2.8712 
18.6628 21.534 1.4356 
17.2272 22.9696 0 
18.6628 24.4052 1.4356 
20.0984 22.9696 0 
17.2272 22.9696 2.8712 
20.0984 22.9696 2.8712 
21.534 21.534 1.4356 
24.4052 21.534 1.4356 
21.534 24.4052 1.4356 
22.9696 22.9696 0 
24.4052 24.4052 1.4356 
22.9696 22.9696 2.8712 
27.2764 21.534 1.4356 
25.8408 22.9696 0 
27.2764 24.4052 1.4356 
25.8408 22.9696 2.8712 
0 25.8408 0 
1.4356 27.2764 1.4356 
2.8712 25.8408 0 
0 25.8408 2.8712 
2.8712 25.8408 2.8712 
4.3068 27.2764 1.4356 
5.7424 25.8408 0 
7.178 27.2764 1.4356 
5.7424 25.8408 2.8712 
8.6136 25.8408 5.937e-17 
10.0492 27.2764 1.4356 
11.4848 25.8408 0 
8.6136 25.8408 2.8712 
11.4848 25.8408 2.8712 
12.9204 27.2764 1.4356 
14.356 25.8408 1.84359e-16 
15.7916 27.2764 1.4356 
14.356 25.8408 2.8712 
17.2272 25.8408 0 
18.6628 27.2764 1.4356 
20.0984 25.8408 0 
17.2272 25.8408 2.8712 
20.0984 25.8408 2.8712 
21.534 27.2764 1.4356 
22.9696 25.8408 0 
24.4052 27.2764 1.4356 
22.9696 25.8408 2.8712 
25.8408 25.8408 0 
27.2764 27.2764 1.4356 
25.8408 25.8408 2.8712 
1.4356 1.4356 4.3068 
3.74968e-17 4.37463e-17 5.7424 
1.4356 1.4356 7.178 
2.8712 1.70689e-16 5.7424 
1.49987e-16 2.8712 5.7424 
2.8712 2.8712 5.7424 
4.3068 1.4356 4.3068 
7.178 1.4356 4.3068 
4.3068 1.4356 7.178 
5.7424 1.66653e-16 5.7424 
7.178 1.4356 7.178 
5.7424 2.8712 5.7424 
10.0492 1.4356 4.3068 
8.6136 4.58294e-17 5.7424 
10.0492 1.4356 7.178 
11.4848 0 5.7424 
8.6136 2.8712 5.7424 
11.4848 2.8712 5.7424 
12.9204 1.4356 4.3068 
15.7916 1.4356 4.3068 
12.9204 1.4356 7.178 
14.356 0 5.7424 
15.7916 1.4356 7.178 
14.356 2.8712 5.7424 
18.6628 1.4356 4.3068 
17.2272 0 5.7424 
18.6628 1.4356 7.178 
20.0984 0 5.7424 
17.2272 2.8712 5.7424 
20.0984 2.8712 5.7424 
21.534 1.4356 4.3068 
24.4052 1.4356 4.3068 
21.534 1.4356 7.178 
22.9696 0 5.7424 
24.4052 1.4356 7.178 
22.9696 2.8712 5.7424 
27.2764 1.4356 4.3068 
25.8408 0 5.7424 
27.2764 1.4356 7.178 
25.8408 2.8712 5.7424 
1.4356 4.3068 4.3068 
1.4356 7.178 4.3068 
1.4356 4.3068 7.178 
1.70819e-16 5.7424 5.7424 
1.4356 7.178 7.178 
2.8712 5.7424 5.7424 
4.3068 4.3068 4.3068 
7.178 4.3068 4.3068 
4.3068 7.178 4.3068 
7.178 7.178 4.3068 
4.3068 4.3068 7.178 
7.178 4.3068 7.178 
4.3068 7.178 7.178 
5.7424 5.7424 5.7424 
7.178 7.178 7.178 
10.0492 4.3068 4.3068 
10.0492 7.178 4.3068 
10.0492 4.3068 7.178 
8.6136 5.7424 5.7424 
10.0492 7.178 7.178 
11.4848 5.7424 5.7424 
12.9204 4.3068 4.3068 
15.7916 4.3068 4.3068 
12.9204 7.178 4.3068 
15.7916 7.178 4.3068 
12.9204 4.3068 7.178 
15.7916 4.3068 7.178 
12.9204 7.178 7.178 
14.356 5.7424 5.7424 
15.7916 7.178 7.178 
18.6628 4.3068 4.3068 
18.6628 7.178 4.3068 
18.6628 4.3068 7.178 
17.2272 5.7424 5.7424 
18.6628 7.178 7.178 
20.0984 5.7424 5.7424 
21.534 4.3068 4.3068 
24.4052 4.3068 4.3068 
21.534 7.178 4.3068 
24.4052 7.178 4.3068 
21.534 4.3068 7.178 
24.4052 4.3068 7.178 
21.534 7.178 7.178 
22.9696 5.7424 5.7424 
24.4052 7.178 7.178 
27.2764 4.3068 4.3068 
27.2764 7.178 4.3068 
27.2764 4.3068 7.178 
25.8408 5.7424 5.7424 
27.2764 7.178 7.178 
1.4356 10.0492 4.3068 
3.74968e-17 8.6136 5.7424 
1.4356 10.0492 7.178 
2.8712 8.6136 5.7424 
0 11.4848 5.7424 
2.8712 11.4848 5.7424 
4.3068 10.0492 4.3068 
7.178 10.0492 4.3068 
4.3068 10.0492 7.178 
5.7424 8.6136 5.7424 
7.178 10.0492 7.178 
5.7424 11.4848 5.7424 
10.0492 10.0492 4.3068 
8.6136 8.6136 5.7424 
10.0492 10.0492 7.178 
11.4848 8.6136 5.7424 
8.6136 11.4848 5.7424 
11.4848 11.4848 5.7424 
12.9204 10.0492 4.3068 
15.7916 10.0492 4.3068 
12.9204 10.0492 7.178 
14.356 8.6136 5.7424 
15.7916 10.0492 7.178 
14.356 11.4848 5.7424 
18.6628 10.0492 4.3068 
17.2272 8.6136 5.7424 
18.6628 10.0492 7.178 
20.0984 8.6136 5.7424 
17.2272 11.4848 5.7424 
20.0984 11.4848 5.7424 
21.534 10.0492 4.3068 
24.4052 10.0492 4.3068 
21.534 10.0492 7.178 
22.9696 8.6136 5.7424 
24.4052 10.0492 7.178 
22.9696 11.4848 5.7424 
27.2764 10.0492 4.3068 
25.8408 8.6136 5.7424 
27.2764 10.0492 7.178 
25.8408 11.4848 5.7424 
1.4356 12.9204 4.3068 
1.4356 15.7916 4.3068 
1.4356 12.9204 7.178 
0 14.356 5.7424 
1.4356 15.7916 7.178 
2.8712 14.356 5.7424 
4.3068 12.9204 4.3068 
7.178 12.9204 4.3068 
4.3068 15.7916 4.3068 
7.178 15.7916 4.3068 
4.3068 12.9204 7.178 
7.178 12.9204 7.178 
4.3068 15.7916 7.178 
5.7424 14.356 5.7424 
7.178 15.7916 7.178 
10.0492 12.9204 4.3068 
10.0492 15.7916 4.3068 
10.0492 12.9204 7.178 
8.6136 14.356 5.7424 
10.0492 15.7916 7.178 
11.4848 14.356 5.7424 
12.9204 12.9204 4.3068 
15.7916 12.9204 4.3068 
12.9204 15.7916 4.3068 
15.7916 15.7916 4.3068 
12.9204 12.9204 7.178 
15.7916 12.9204 7.178 
12.9204 15.7916 7.178 
14.356 14.356 5.7424 
15.7916 15.7916 7.178 
18.6628 12.9204 4.3068 
18.6628 15.7916 4.3068 
18.6628 12.9204 7.178 
17.2272 14.356 5.7424 
18.6628 15.7916 7.178 
20.0984 14.356 5.7424 
21.534 12.9204 4.3068 
24.4052 12.9204 4.3068 
21.534 15.7916 4.3068 
24.4052 15.7916 4.3068 
21.534 12.9204 7.178 
24.4052 12.9204 7.178 
21.534 15.7916 7.178 
22.9696 14.356 5.7424 
24.4052 15.7916 7.178 
27.2764 12.9204 4.3068 
27.2764 15.7916 4.3068 
27.2764 12.9204 7.178 
25.8408 14.356 5.7424 
27.2764 15.7916 7.178 
1.4356 18.6628 4.3068 
0 17.2272 5.7424 
1.4356 18.6628 7.178 
2.8712 17.2272 5.7424 
0 20.0984 5.7424 
2.8712 20.0984 5.7424 
4.3068 18.6628 4.3068 
7.178 18.6628 4.3068 
4.3068 18.6628 7.178 
5.7424 17.2272 5.7424 
7.178 18.6628 7.178 
5.7424 20.0984 5.7424 
10.0492 18.6628 4.3068 
8.6136 17.2272 5.7424 
10.0492 18.6628 7.178 
11.4848 17.2272 5.7424 
8.6136 20.0984 5.7424 
11.4848 20.0984 5.7424 
12.9204 18.6628 4.3068 
15.7916 18.6628 4.3068 
12.9204 18.6628 7.178 
14.356 17.2272 5.7424 
15.7916 18.6628 7.178 
14.356 20.0984 5.7424 
18.6628 18.6628 4.3068 
17.2272 17.2272 5.7424 
18.6628 18.6628 7.178 
20.0984 17.2272 5.7424 
17.2272 20.0984 5.7424 
20.0984 20.0984 5.7424 
21.534 18.6628 4.3068 
24.4052 18.6628 4.3068 
21.534 18.6628 7.178 
22.9696 17.2272 5.7424 
24.4052 18.6628 7.178 
22.9696 20.0984 5.7424 
27.2764 18.6628 4.3068 
25.8408 17.2272 5.7424 
27.2764 18.6628 7.178 
25.8408 20.0984 5.7424 
1.4356 21.534 4.3068 
1.4356 24.4052 4.3068 
1.4356 21.534 7.178 
0 22.9696 5.7424 
1.4356 24.4052 7.178 
2.8712 22.9696 5.7424 
4.3068 21.534 4.3068 
7.178 21.534 4.3068 
4.3068 24.4052 4.3068 
7.178 24.4052 4.3068 
4.3068 21.534 7.178 
7.178 21.534 7.178 
4.3068 24.4052 7.178 
5.7424 22.9696 5.7424 
7.178 24.4052 7.178 
10.0492 21.534 4.3068 
10.0492 24.4052 4.3068 
10.0492 21.534 7.178 
8.6136 22.9696 5.7424 
10.0492 24.4052 7.178 
11.4848 22.9696 5.7424 
12.9204 21.534 4.3068 
15.7916 21.534 4.3068 
12.9204 24.4052 4.3068 
15.7916 24.4052 4.3068 
12.9204 21.534 7.178 
15.7916 21.534 7.178 
12.9204 24.4052 7.178 
14.356 22.9696 5.7424 
15.7916 24.4052 7.178 
18.6628 21.534 4.3068 
18.6628 24.4052 4.3068 
18.6628 21.534 7.178 
17.2272 22.9696 5.7424 
18.6628 24.4052 7.178 
20.0984 22.9696 5.7424 
21.534 21.534 4.3068 
24.4052 21.534 4.3068 
21.534 24.4052 4.3068 
24.4052 24.4052 4.3068 
21.534 21.534 7.178 
24.4052 21.534 7.178 
21.534 24.4052 7.178 
22.9696 22.9696 5.7424 
24.4052 24.4052 7.178 
27.2764 21.534 4.3068 
27.2764 24.4052 4.3068 
27.2764 21.534 7.178 
25.8408 22.9696 5.7424 
27.2764 24.4052 7.178 
1.4356 27.2764 4.3068 
0 25.8408 5.7424 
1.4356 27.2764 7.178 
2.8712 25.8408 5.7424 
4.3068 27.2764 4.3068 
7.178 27.2764 4.3068 
4.3068 27.2764 7.178 
5.7424 25.8408 5.7424 
7.178 27.2764 7.178 
10.0492 27.2764 4.3068 
8.6136 25.8408 5.7424 
10.0492 27.2764 7.178 
11.4848 25.8408 5.7424 
12.9204 27.2764 4.3068 
15.7916 27.2764 4.3068 
12.9204 27.2764 7.178 
14.356 25.8408 5.7424 
15.7916 27.2764 7.178 
18.6628 27.2764 4.3068 
17.2272 25.8408 5.7424 
18.6628 27.2764 7.178 
20.0984 25.8408 5.7424 
21.534 27.2764 4.3068 
24.4052 27.2764 4.3068 
21.534 27.2764 7.178 
22.9696 25.8408 5.7424 
24.4052 27.2764 7.178 
27.2764 27.2764 4.3068 
25.8408 25.8408 5.7424 
27.2764 27.2764 7.178 
2.91642e-17 2.7081e-17 8.6136 
1.4356 1.4356 10.0492 
2.8712 3.73666e-17 8.6136 
2.7081e-17 2.8712 8.6136 
2.8712 2.8712 8.6136 
0 0 11.4848 
2.8712 0 11.4848 
0 2.8712 11.4848 
2.8712 2.8712 11.4848 
4.3068 1.4356 10.0492 
5.7424 4.16631e-17 8.6136 
7.178 1.4356 10.0492 
5.7424 2.8712 8.6136 
5.7424 0 11.4848 
5.7424 2.8712 11.4848 
8.6136 0 8.6136 
10.0492 1.4356 10.0492 
11.4848 4.58294e-17 8.6136 
8.6136 2.8712 8.6136 
11.4848 2.8712 8.6136 
8.6136 3.94498e-17 11.4848 
11.4848 0 11.4848 
8.6136 2.8712 11.4848 
11.4848 2.8712 11.4848 
12.9204 1.4356 10.0492 
14.356 0 8.6136 
15.7916 1.4356 10.0492 
14.356 2.8712 8.6136 
14.356 1.79151e-16 11.4848 
14.356 2.8712 11.4848 
17.2272 4.58294e-17 8.6136 
18.6628 1.4356 10.0492 
20.0984 0 8.6136 
17.2272 2.8712 8.6136 
20.0984 2.8712 8.6136 
17.2272 0 11.4848 
20.0984 0 11.4848 
17.2272 2.8712 11.4848 
20.0984 2.8712 11.4848 
21.534 1.4356 10.0492 
22.9696 3.74968e-17 8.6136 
24.4052 1.4356 10.0492 
22.9696 2.8712 8.6136 
22.9696 0 11.4848 
22.9696 2.8712 11.4848 
25.8408 0 8.6136 
27.2764 1.4356 10.0492 
25.8408 2.8712 8.6136 
25.8408 0 11.4848 
25.8408 2.8712 11.4848 
1.4356 4.3068 10.0492 
3.33305e-17 5.7424 8.6136 
1.4356 7.178 10.0492 
2.8712 5.7424 8.6136 
0 5.7424 11.4848 
2.8712 5.7424 11.4848 
4.3068 4.3068 10.0492 
7.178 4.3068 10.0492 
4.3068 7.178 10.0492 
5.7424 5.7424 8.6136 
7.178 7.178 10.0492 
5.7424 5.7424 11.4848 
10.0492 4.3068 10.0492 
8.6136 5.7424 8.6136 
10.0492 7.178 10.0492 
11.4848 5.7424 8.6136 
8.6136 5.7424 11.4848 
11.4848 5.7424 11.4848 
12.9204 4.3068 10.0492 
15.7916 4.3068 10.0492 
12.9204 7.178 10.0492 
14.356 5.7424 8.6136 
15.7916 7.178 10.0492 
14.356 5.7424 11.4848 
18.6628 4.3068 10.0492 
17.2272 5.7424 8.6136 
18.6628 7.178 10.0492 
20.0984 5.7424 8.6136 
17.2272 5.7424 11.4848 
20.0984 5.7424 11.4848 
21.534 4.3068 10.0492 
24.4052 4.3068 10.0492 
21.534 7.178 10.0492 
22.9696 5.7424 8.6136 
24.4052 7.178 10.0492 
22.9696 5.7424 11.4848 
27.2764 4.3068 10.0492 
25.8408 5.7424 8.6136 
27.2764 7.178 10.0492 
25.8408 5.7424 11.4848 
0 8.6136 8.6136 
1.4356 10.0492 10.0492 
2.8712 8.6136 8.6136 
4.37463e-17 11.4848 8.6136 
2.8712 11.4848 8.6136 
3.61948e-17 8.6136 11.4848 
2.8712 8.6136 11.4848 
0 11.4848 11.4848 
2.8712 11.4848 11.4848 
4.3068 10.0492 10.0492 
5.7424 8.6136 8.6136 
7.178 10.0492 10.0492 
5.7424 11.4848 8.6136 
5.7424 8.6136 11.4848 
5.7424 11.4848 11.4848 
8.6136 8.6136 8.6136 
10.0492 10.0492 10.0492 
11.4848 8.6136 8.6136 
8.6136 11.4848 8.6136 
11.4848 11.4848 8.6136 
8.6136 8.6136 11.4848 
11.4848 8.6136 11.4848 
8.6136 11.4848 11.4848 
11.4848 11.4848 11.4848 
12.9204 10.0492 10.0492 
14.356 8.6136 8.6136 
15.7916 10.0492 10.0492 
14.356 11.4848 8.6136 
14.356 8.6136 11.4848 
14.356 11.4848 11.4848 
17.2272 8.6136 8.6136 
18.6628 10.0492 10.0492 
20.0984 8.6136 8.6136 
17.2272 11.4848 8.6136 
20.0984 11.4848 8.6136 
17.2272 8.6136 11.4848 
20.0984 8.6136 11.4848 
17.2272 11.4848 11.4848 
20.0984 11.4848 11.4848 
21.534 10.0492 10.0492 
22.9696 8.6136 8.6136 
24.4052 10.0492 10.0492 
22.9696 11.4848 8.6136 
22.9696 8.6136 11.4848 
22.9696 11.4848 11.4848 
25.8408 8.6136 8.6136 
27.2764 10.0492 10.0492 
25.8408 11.4848 8.6136 
25.8408 8.6136 11.4848 
25.8408 11.4848 11.4848 
1.4356 12.9204 10.0492 
0 14.356 8.6136 
1.4356 15.7916 10.0492 
2.8712 14.356 8.6136 
1.7186e-16 14.356 11.4848 
2.8712 14.356 11.4848 
4.3068 12.9204 10.0492 
7.178 12.9204 10.0492 
4.3068 15.7916 10.0492 
5.7424 14.356 8.6136 
7.178 15.7916 10.0492 
5.7424 14.356 11.4848 
10.0492 12.9204 10.0492 
8.6136 14.356 8.6136 
10.0492 15.7916 10.0492 
11.4848 14.356 8.6136 
8.6136 14.356 11.4848 
11.4848 14.356 11.4848 
12.9204 12.9204 10.0492 
15.7916 12.9204 10.0492 
12.9204 15.7916 10.0492 
14.356 14.356 8.6136 
15.7916 15.7916 10.0492 
14.356 14.356 11.4848 
18.6628 12.9204 10.0492 
17.2272 14.356 8.6136 
18.6628 15.7916 10.0492 
20.0984 14.356 8.6136 
17.2272 14.356 11.4848 
20.0984 14.356 11.4848 
21.534 12.9204 10.0492 
24.4052 12.9204 10.0492 
21.534 15.7916 10.0492 
22.9696 14.356 8.6136 
24.4052 15.7916 10.0492 
22.9696 14.356 11.4848 
27.2764 12.9204 10.0492 
25.8408 14.356 8.6136 
27.2764 15.7916 10.0492 
25.8408 14.356 11.4848 
5.41621e-17 17.2272 8.6136 
1.4356 18.6628 10.0492 
2.8712 17.2272 8.6136 
1.24989e-17 20.0984 8.6136 
2.8712 20.0984 8.6136 
0 17.2272 11.4848 
2.8712 17.2272 11.4848 
0 20.0984 11.4848 
2.8712 20.0984 11.4848 
4.3068 18.6628 10.0492 
5.7424 17.2272 8.6136 
7.178 18.6628 10.0492 
5.7424 20.0984 8.6136 
5.7424 17.2272 11.4848 
5.7424 20.0984 11.4848 
8.6136 17.2272 8.6136 
10.0492 18.6628 10.0492 
11.4848 17.2272 8.6136 
8.6136 20.0984 8.6136 
11.4848 20.0984 8.6136 
8.6136 17.2272 11.4848 
11.4848 17.2272 11.4848 
8.6136 20.0984 11.4848 
11.4848 20.0984 11.4848 
12.9204 18.6628 10.0492 
14.356 17.2272 8.6136 
15.7916 18.6628 10.0492 
14.356 20.0984 8.6136 
14.356 17.2272 11.4848 
14.356 20.0984 11.4848 
17.2272 17.2272 8.6136 
18.6628 18.6628 10.0492 
20.0984 17.2272 8.6136 
17.2272 20.0984 8.6136 
20.0984 20.0984 8.6136 
17.2272 17.2272 11.4848 
20.0984 17.2272 11.4848 
17.2272 20.0984 11.4848 
20.0984 20.0984 11.4848 
21.534 18.6628 10.0492 
22.9696 17.2272 8.6136 
24.4052 18.6628 10.0492 
22.9696 20.0984 8.6136 
22.9696 17.2272 11.4848 
22.9696 20.0984 11.4848 
25.8408 17.2272 8.6136 
27.2764 18.6628 10.0492 
25.8408 20.0984 8.6136 
25.8408 17.2272 11.4848 
25.8408 20.0984 11.4848 
1.4356 21.534 10.0492 
3.74968e-17 22.9696 8.6136 
1.4356 24.4052 10.0492 
2.8712 22.9696 8.6136 
0 22.9696 11.4848 
2.8712 22.9696 11.4848 
4.3068 21.534 10.0492 
7.178 21.534 10.0492 
4.3068 24.4052 10.0492 
5.7424 22.9696 8.6136 
7.178 24.4052 10.0492 
5.7424 22.9696 11.4848 
10.0492 21.534 10.0492 
8.6136 22.9696 8.6136 
10.0492 24.4052 10.0492 
11.4848 22.9696 8.6136 
8.6136 22.9696 11.4848 
11.4848 22.9696 11.4848 
12.9204 21.534 10.0492 
15.7916 21.534 10.0492 
12.9204 24.4052 10.0492 
14.356 22.9696 8.6136 
15.7916 24.4052 10.0492 
14.356 22.9696 11.4848 
18.6628 21.534 10.0492 
17.2272 22.9696 8.6136 
18.6628 24.4052 10.0492 
20.0984 22.9696 8.6136 
17.2272 22.9696 11.4848 
20.0984 22.9696 11.4848 
21.534 21.534 10.0492 
24.4052 21.534 10.0492 
21.534 24.4052 10.0492 
22.9696 22.9696 8.6136 
24.4052 24.4052 10.0492 
22.9696 22.9696 11.4848 
27.2764 21.534 10.0492 
25.8408 22.9696 8.6136 
27.2764 24.4052 10.0492 
25.8408 22.9696 11.4848 
0 25.8408 8.6136 
1.4356 27.2764 10.0492 
2.8712 25.8408 8.6136 
0 25.8408 11.4848 
2.8712 25.8408 11.4848 
4.3068 27.2764 10.0492 
5.7424 25.8408 8.6136 
7.178 27.2764 10.0492 
5.7424 25.8408 11.4848 
8.6136 25.8408 8.6136 
10.0492 27.2764 10.0492 
11.4848 25.8408 8.6136 
8.6136 25.8408 11.4848 
11.4848 25.8408 11.4848 
12.9204 27.2764 10.0492 
14.356 25.8408 8.6136 
15.7916 27.2764 10.0492 
14.356 25.8408 11.4848 
17.2272 25.8408 8.6136 
18.6628 27.2764 10.0492 
20.0984 25.8408 8.6136 
17.2272 25.8408 11.4848 
20.0984 25.8408 11.4848 
21.534 27.2764 10.0492 
22.9696 25.8408 8.6136 
24.4052 27.2764 10.0492 
22.9696 25.8408 11.4848 
25.8408 25.8408 8.6136 
27.2764 27.2764 10.0492 
25.8408 25.8408 11.4848 
1.4356 1.4356 12.9204 
4.16631e-17 4.89542e-17 14.356 
1.4356 1.4356 15.7916 
2.8712 0 14.356 
0 2.8712 14.356 
2.8712 2.8712 14.356 
4.3068 1.4356 12.9204 
7.178 1.4356 12.9204 
4.3068 1.4356 15.7916 
5.7424 0 14.356 
7.178 1.4356 15.7916 
5.7424 2.8712 14.356 
10.0492 1.4356 12.9204 
8.6136 0 14.356 
10.0492 1.4356 15.7916 
11.4848 1.79151e-16 14.356 
8.6136 2.8712 14.356 
11.4848 2.8712 14.356 
12.9204 1.4356 12.9204 
15.7916 1.4356 12.9204 
12.9204 1.4356 15.7916 
14.356 0 14.356 
15.7916 1.4356 15.7916 
14.356 2.8712 14.356 
18.6628 1.4356 12.9204 
17.2272 1.66653e-16 14.356 
18.6628 1.4356 15.7916 
20.0984 5.83284e-17 14.356 
17.2272 2.8712 14.356 
20.0984 2.8712 14.356 
21.534 1.4356 12.9204 
24.4052 1.4356 12.9204 
21.534 1.4356 15.7916 
22.9696 1.49987e-16 14.356 
24.4052 1.4356 15.7916 
22.9696 2.8712 14.356 
27.2764 1.4356 12.9204 
25.8408 5.83284e-17 14.356 
27.2764 1.4356 15.7916 
25.8408 2.8712 14.356 
1.4356 4.3068 12.9204 
1.4356 7.178 12.9204 
1.4356 4.3068 15.7916 
0 5.7424 14.356 
1.4356 7.178 15.7916 
2.8712 5.7424 14.356 
4.3068 4.3068 12.9204 
7.178 4.3068 12.9204 
4.3068 7.178 12.9204 
7.178 7.178 12.9204 
4.3068 4.3068 15.7916 
7.178 4.3068 15.7916 
4.3068 7.178 15.7916 
5.7424 5.7424 14.356 
7.178 7.178 15.7916 
10.0492 4.3068 12.9204 
10.0492 7.178 12.9204 
10.0492 4.3068 15.7916 
8.6136 5.7424 14.356 
10.0492 7.178 15.7916 
11.4848 5.7424 14.356 
12.9204 4.3068 12.9204 
15.7916 4.3068 12.9204 
12.9204 7.178 12.9204 
15.7916 7.178 12.9204 
12.9204 4.3068 15.7916 
15.7916 4.3068 15.7916 
12.9204 7.178 15.7916 
14.356 5.7424 14.356 
15.7916 7.178 15.7916 
18.6628 4.3068 12.9204 
18.6628 7.178 12.9204 
18.6628 4.3068 15.7916 
17.2272 5.7424 14.356 
18.6628 7.178 15.7916 
20.0984 5.7424 14.356 
21.534 4.3068 12.9204 
24.4052 4.3068 12.9204 
21.534 7.178 12.9204 
24.4052 7.178 12.9204 
21.534 4.3068 15.7916 
24.4052 4.3068 15.7916 
21.534 7.178 15.7916 
22.9696 5.7424 14.356 
24.4052 7.178 15.7916 
27.2764 4.3068 12.9204 
27.2764 7.178 12.9204 
27.2764 4.3068 15.7916 
25.8408 5.7424 14.356 
27.2764 7.178 15.7916 
1.4356 10.0492 12.9204 
0 8.6136 14.356 
1.4356 10.0492 15.7916 
2.8712 8.6136 14.356 
1.52591e-16 11.4848 14.356 
2.8712 11.4848 14.356 
4.3068 10.0492 12.9204 
7.178 10.0492 12.9204 
4.3068 10.0492 15.7916 
5.7424 8.6136 14.356 
7.178 10.0492 15.7916 
5.7424 11.4848 14.356 
10.0492 10.0492 12.9204 
8.6136 8.6136 14.356 
10.0492 10.0492 15.7916 
11.4848 8.6136 14.356 
8.6136 11.4848 14.356 
11.4848 11.4848 14.356 
12.9204 10.0492 12.9204 
15.7916 10.0492 12.9204 
12.9204 10.0492 15.7916 
14.356 8.6136 14.356 
15.7916 10.0492 15.7916 
14.356 11.4848 14.356 
18.6628 10.0492 12.9204 
17.2272 8.6136 14.356 
18.6628 10.0492 15.7916 
20.0984 8.6136 14.356 
17.2272 11.4848 14.356 
20.0984 11.4848 14.356 
21.534 10.0492 12.9204 
24.4052 10.0492 12.9204 
21.534 10.0492 15.7916 
22.9696 8.6136 14.356 
24.4052 10.0492 15.7916 
22.9696 11.4848 14.356 
27.2764 10.0492 12.9204 
25.8408 8.6136 14.356 
27.2764 10.0492 15.7916 
25.8408 11.4848 14.356 
1.4356 12.9204 12.9204 
1.4356 15.7916 12.9204 
1.4356 12.9204 15.7916 
0 14.356 14.356 
1.4356 15.7916 15.7916 
2.8712 14.356 14.356 
4.3068 12.9204 12.9204 
7.178 12.9204 12.9204 
4.3068 15.7916 12.9204 
7.178 15.7916 12.9204 
4.3068 12.9204 15.7916 
7.178 12.9204 15.7916 
4.3068 15.7916 15.7916 
5.7424 14.356 14.356 
7.178 15.7916 15.7916 
10.0492 12.9204 12.9204 
10.0492 15.7916 12.9204 
10.0492 12.9204 15.7916 
8.6136 14.356 14.356 
10.0492 15.7916 15.7916 
11.4848 14.356 14.356 
12.9204 12.9204 12.9204 
15.7916 12.9204 12.9204 
12.9204 15.7916 12.9204 
15.7916 15.7916 12.9204 
12.9204 12.9204 15.7916 
15.7916 12.9204 15.7916 
12.9204 15.7916 15.7916 
14.356 14.356 14.356 
15.7916 15.7916 15.7916 
18.6628 12.9204 12.9204 
18.6628 15.7916 12.9204 
18.6628 12.9204 15.7916 
17.2272 14.356 14.356 
18.6628 15.7916 15.7916 
20.0984 14.356 14.356 
21.534 12.9204 12.9204 
24.4052 12.9204 12.9204 
21.534 15.7916 12.9204 
24.4052 15.7916 12.9204 
21.534 12.9204 15.7916 
24.4052 12.9204 15.7916 
21.534 15.7916 15.7916 
22.9696 14.356 14.356 
24.4052 15.7916 15.7916 
27.2764 12.9204 12.9204 
27.2764 15.7916 12.9204 
27.2764 12.9204 15.7916 
25.8408 14.356 14.356 
27.2764 15.7916 15.7916 
1.4356 18.6628 12.9204 
1.62486e-16 17.2272 14.356 
1.4356 18.6628 15.7916 
2.8712 17.2272 14.356 
6.19739e-17 20.0984 14.356 
2.8712 20.0984 14.356 
4.3068 18.6628 12.9204 
7.178 18.6628 12.9204 
4.3068 18.6628 15.7916 
5.7424 17.2272 14.356 
7.178 18.6628 15.7916 
5.7424 20.0984 14.356 
10.0492 18.6628 12.9204 
8.6136 17.2272 14.356 
10.0492 18.6628 15.7916 
11.4848 17.2272 14.356 
8.6136 20.0984 14.356 
11.4848 20.0984 14.356 
12.9204 18.6628 12.9204 
15.7916 18.6628 12.9204 
12.9204 18.6628 15.7916 
14.356 17.2272 14.356 
15.7916 18.6628 15.7916 
14.356 20.0984 14.356 
18.6628 18.6628 12.9204 
17.2272 17.2272 14.356 
18.6628 18.6628 15.7916 
20.0984 17.2272 14.356 
17.2272 20.0984 14.356 
20.0984 20.0984 14.356 
21.534 18.6628 12.9204 
24.4052 18.6628 12.9204 
21.534 18.6628 15.7916 
22.9696 17.2272 14.356 
24.4052 18.6628 15.7916 
22.9696 20.0984 14.356 
27.2764 18.6628 12.9204 
25.8408 17.2272 14.356 
27.2764 18.6628 15.7916 
25.8408 20.0984 14.356 
1.4356 21.534 12.9204 
1.4356 24.4052 12.9204 
1.4356 21.534 15.7916 
1.54154e-16 22.9696 14.356 
1.4356 24.4052 15.7916 
2.8712 22.9696 14.356 
4.3068 21.534 12.9204 
7.178 21.534 12.9204 
4.3068 24.4052 12.9204 
7.178 24.4052 12.9204 
4.3068 21.534 15.7916 
7.178 21.534 15.7916 
4.3068 24.4052 15.7916 
5.7424 22.9696 14.356 
7.178 24.4052 15.7916 
10.0492 21.534 12.9204 
10.0492 24.4052 12.9204 
10.0492 21.534 15.7916 
8.6136 22.9696 14.356 
10.0492 24.4052 15.7916 
11.4848 22.9696 14.356 
12.9204 21.534 12.9204 
15.7916 21.534 12.9204 
12.9204 24.4052 12.9204 
15.7916 24.4052 12.9204 
12.9204 21.534 15.7916 
15.7916 21.534 15.7916 
12.9204 24.4052 15.7916 
14.356 22.9696 14.356 
15.7916 24.4052 15.7916 
18.6628 21.534 12.9204 
18.6628 24.4052 12.9204 
18.6628 21.534 15.7916 
17.2272 22.9696 14.356 
18.6628 24.4052 15.7916 
20.0984 22.9696 14.356 
21.534 21.534 12.9204 
24.4052 21.534 12.9204 
21.534 24.4052 12.9204 
24.4052 24.4052 12.9204 
21.534 21.534 15.7916 
24.4052 21.534 15.7916 
21.534 24.4052 15.7916 
22.9696 22.9696 14.356 
24.4052 24.4052 15.7916 
27.2764 21.534 12.9204 
27.2764 24.4052 12.9204 
27.2764 21.534 15.7916 
25.8408 22.9696 14.356 
27.2764 24.4052 15.7916 
1.4356 27.2764 12.9204 
4.58294e-17 25.8408 14.356 
1.4356 27.2764 15.7916 
2.8712 25.8408 14.356 
4.3068 27.2764 12.9204 
7.178 27.2764 12.9204 
4.3068 27.2764 15.7916 
5.7424 25.8408 14.356 
7.178 27.2764 15.7916 
10.0492 27.2764 12.9204 
8.6136 25.8408 14.356 
10.0492 27.2764 15.7916 
11.4848 25.8408 14.356 
12.9204 27.2764 12.9204 
15.7916 27.2764 12.9204 
12.9204 27.2764 15.7916 
14.356 25.8408 14.356 
15.7916 27.2764 15.7916 
18.6628 27.2764 12.9204 
17.2272 25.8408 14.356 
18.6628 27.2764 15.7916 
20.0984 25.8408 14.356 
21.534 27.2764 12.9204 
24.4052 27.2764 12.9204 
21.534 27.2764 15.7916 
22.9696 25.8408 14.356 
24.4052 27.2764 15.7916 
27.2764 27.2764 12.9204 
25.8408 25.8408 14.356 
27.2764 27.2764 15.7916 
0 0 17.2272 
1.4356 1.4356 18.6628 
2.8712 0 17.2272 
0 2.8712 17.2272 
2.8712 2.8712 17.2272 
0 0 20.0984 
2.8712 0 20.0984 
0 2.8712 20.0984 
2.8712 2.8712 20.0984 
4.3068 1.4356 18.6628 
5.7424 0 17.2272 
7.178 1.4356 18.6628 
5.7424 2.8712 17.2272 
5.7424 0 20.0984 
5.7424 2.8712 20.0984 
8.6136 5.41621e-17 17.2272 
10.0492 1.4356 18.6628 
11.4848 0 17.2272 
8.6136 2.8712 17.2272 
11.4848 2.8712 17.2272 
8.6136 3.51533e-18 20.0984 
11.4848 0 20.0984 
8.6136 2.8712 20.0984 
11.4848 2.8712 20.0984 
12.9204 1.4356 18.6628 
14.356 1.74985e-16 17.2272 
15.7916 1.4356 18.6628 
14.356 2.8712 17.2272 
14.356 5.92398e-17 20.0984 
14.356 2.8712 20.0984 
17.2272 0 17.2272 
18.6628 1.4356 18.6628 
20.0984 0 17.2272 
17.2272 2.8712 17.2272 
20.0984 2.8712 17.2272 
17.2272 0 20.0984 
20.0984 0 20.0984 
17.2272 2.8712 20.0984 
20.0984 2.8712 20.0984 
21.534 1.4356 18.6628 
22.9696 0 17.2272 
24.4052 1.4356 18.6628 
22.9696 2.8712 17.2272 
22.9696 0 20.0984 
22.9696 2.8712 20.0984 
25.8408 0 17.2272 
27.2764 1.4356 18.6628 
25.8408 2.8712 17.2272 
25.8408 0 20.0984 
25.8408 2.8712 20.0984 
1.4356 4.3068 18.6628 
0 5.7424 17.2272 
1.4356 7.178 18.6628 
2.8712 5.7424 17.2272 
0 5.7424 20.0984 
2.8712 5.7424 20.0984 
4.3068 4.3068 18.6628 
7.178 4.3068 18.6628 
4.3068 7.178 18.6628 
5.7424 5.7424 17.2272 
7.178 7.178 18.6628 
5.7424 5.7424 20.0984 
10.0492 4.3068 18.6628 
8.6136 5.7424 17.2272 
10.0492 7.178 18.6628 
11.4848 5.7424 17.2272 
8.6136 5.7424 20.0984 
11.4848 5.7424 20.0984 
12.9204 4.3068 18.6628 
15.7916 4.3068 18.6628 
12.9204 7.178 18.6628 
14.356 5.7424 17.2272 
15.7916 7.178 18.6628 
14.356 5.7424 20.0984 
18.6628 4.3068 18.6628 
17.2272 5.7424 17.2272 
18.6628 7.178 18.6628 
20.0984 5.7424 17.2272 
17.2272 5.7424 20.0984 
20.0984 5.7424 20.0984 
21.534 4.3068 18.6628 
24.4052 4.3068 18.6628 
21.534 7.178 18.6628 
22.9696 5.7424 17.2272 
24.4052 7.178 18.6628 
22.9696 5.7424 20.0984 
27.2764 4.3068 18.6628 
25.8408 5.7424 17.2272 
27.2764 7.178 18.6628 
25.8408 5.7424 20.0984 
5.41621e-17 8.6136 17.2272 
1.4356 10.0492 18.6628 
2.8712 8.6136 17.2272 