ITEM: TIMESTEP
0
ITEM: NUMBER OF ATOMS
2000
ITEM: BOX BOUNDS pp pp pp
0.0000000000000000e+00 2.9150999999999996e+01
0.0000000000000000e+00 2.9150999999999996e+01
0.0000000000000000e+00 2.9150999999999996e+01
ITEM: ATOMS x y z 
6.15808e-16 6.15808e-16 6.1058e-16 
1.45755 1.45755 1.45755 
2.9151 6.33709e-16 7.19708e-16 
6.25104e-16 2.9151 7.3897e-16 
2.9151 2.9151 7.02624e-16 
6.78551e-16 6.88427e-16 2.9151 
2.9151 5.80588e-16 2.9151 
5.80951e-16 2.9151 2.9151 
2.9151 2.9151 2.9151 
4.37265 1.45755 1.45755 
5.8302 7.5756e-16 7.5756e-16 
7.28775 1.45755 1.45755 
5.8302 2.9151 6.51101e-16 
5.8302 8.71427e-16 2.9151 
5.8302 2.9151 2.9151 
8.7453 8.01713e-16 7.83122e-16 
10.2028 1.45755 1.45755 
11.6604 7.69179e-16 7.36646e-16 
8.7453 2.9151 7.18491e-16 
11.6604 2.9151 6.41225e-16 
8.7453 8.41217e-16 2.9151 
11.6604 8.78398e-16 2.9151 
8.7453 2.9151 2.9151 
11.6604 2.9151 2.9151 
13.1179 1.45755 1.45755 
14.5755 8.04037e-16 7.85446e-16 
16.033 1.45755 1.45755 
14.5755 2.9151 7.25463e-16 
14.5755 8.41217e-16 2.9151 
14.5755 2.9151 2.9151 
17.4906 7.3897e-16 7.3897e-16 
18.9481 1.45755 1.45755 
20.4057 7.36646e-16 7.18056e-16 
17.4906 2.9151 8.01023e-16 
20.4057 2.9151 8.0567e-16 
17.4906 7.48265e-16 2.9151 
20.4057 7.55237e-16 2.9151 
17.4906 2.9151 2.9151 
20.4057 2.9151 2.9151 
21.8632 1.45755 1.45755 
23.3208 8.69103e-16 8.45865e-16 
24.7783 1.45755 1.45755 
23.3208 2.9151 8.02148e-16 
23.3208 7.90094e-16 2.9151 
23.3208 2.9151 2.9151 
26.2359 7.36646e-16 7.15732e-16 
27.6934 1.45755 1.45755 
26.2359 2.9151 7.97646e-16 
26.2359 7.46522e-16 2.9151 
26.2359 2.9151 2.9151 
1.45755 4.37265 1.45755 
7.64532e-16 5.8302 7.64532e-16 
1.45755 7.28775 1.45755 
2.9151 5.8302 6.54587e-16 
8.73751e-16 5.8302 2.9151 
2.9151 5.8302 2.9151 
4.37265 4.37265 1.45755 
7.28775 4.37265 1.45755 
4.37265 7.28775 1.45755 
5.8302 5.8302 7.2677e-16 
7.28775 7.28775 1.45755 
5.8302 5.8302 2.9151 
10.2028 4.37265 1.45755 
8.7453 5.8302 7.37808e-16 
10.2028 7.28775 1.45755 
11.6604 5.8302 7.13408e-16 
8.7453 5.8302 2.9151 
11.6604 5.8302 2.9151 
13.1179 4.37265 1.45755 
16.033 4.37265 1.45755 
13.1179 7.28775 1.45755 
14.5755 5.8302 7.33741e-16 
16.033 7.28775 1.45755 
14.5755 5.8302 2.9151 
18.9481 4.37265 1.45755 
17.4906 5.8302 7.44199e-16 
18.9481 7.28775 1.45755 
20.4057 5.8302 7.64532e-16 
17.4906 5.8302 2.9151 
20.4057 5.8302 2.9151 
21.8632 4.37265 1.45755 
24.7783 4.37265 1.45755 
21.8632 7.28775 1.45755 
23.3208 5.8302 7.78475e-16 
24.7783 7.28775 1.45755 
23.3208 5.8302 2.9151 
27.6934 4.37265 1.45755 
26.2359 5.8302 7.50589e-16 
27.6934 7.28775 1.45755 
26.2359 5.8302 2.9151 
8.08684e-16 8.7453 7.8777e-16 
1.45755 10.2028 1.45755 
2.9151 8.7453 7.27787e-16 
7.66856e-16 11.6604 7.4478e-16 
2.9151 11.6604 6.4816e-16 
8.38894e-16 8.7453 2.9151 
2.9151 8.7453 2.9151 
8.59808e-16 11.6604 2.9151 
2.9151 11.6604 2.9151 
4.37265 10.2028 1.45755 
5.8302 8.7453 7.43618e-16 
7.28775 10.2028 1.45755 
5.8302 11.6604 7.17475e-16 
5.8302 8.7453 2.9151 
5.8302 11.6604 2.9151 
8.7453 8.7453 7.48846e-16 
10.2028 10.2028 1.45755 
11.6604 8.7453 7.31999e-16 
8.7453 11.6604 7.28513e-16 
11.6604 11.6604 7.33161e-16 
8.7453 8.7453 2.9151 
11.6604 8.7453 2.9151 
8.7453 11.6604 2.9151 
11.6604 11.6604 2.9151 
13.1179 10.2028 1.45755 
14.5755 8.7453 7.28513e-16 
16.033 10.2028 1.45755 
14.5755 11.6604 7.4536e-16 
14.5755 8.7453 2.9151 
14.5755 11.6604 2.9151 
17.4906 8.7453 7.30256e-16 
18.9481 10.2028 1.45755 
20.4057 8.7453 7.21541e-16 
17.4906 11.6604 7.36646e-16 
20.4057 11.6604 7.45941e-16 
17.4906 8.7453 2.9151 
20.4057 8.7453 2.9151 
17.4906 11.6604 2.9151 
20.4057 11.6604 2.9151 
21.8632 10.2028 1.45755 
23.3208 8.7453 7.19799e-16 
24.7783 10.2028 1.45755 
23.3208 11.6604 7.64532e-16 
23.3208 8.7453 2.9151 
23.3208 11.6604 2.9151 
26.2359 8.7453 7.29094e-16 
27.6934 10.2028 1.45755 
26.2359 11.6604 7.58141e-16 
26.2359 8.7453 2.9151 
26.2359 11.6604 2.9151 
1.45755 13.1179 1.45755 
8.11008e-16 14.5755 7.92418e-16 
1.45755 16.033 1.45755 
2.9151 14.5755 7.32434e-16 
8.38894e-16 14.5755 2.9151 
2.9151 14.5755 2.9151 
4.37265 13.1179 1.45755 
7.28775 13.1179 1.45755 
4.37265 16.033 1.45755 
5.8302 14.5755 7.37808e-16 
7.28775 16.033 1.45755 
5.8302 14.5755 2.9151 
10.2028 13.1179 1.45755 
8.7453 14.5755 7.31999e-16 
10.2028 16.033 1.45755 
11.6604 14.5755 7.40132e-16 
8.7453 14.5755 2.9151 
11.6604 14.5755 2.9151 
13.1179 13.1179 1.45755 
16.033 13.1179 1.45755 
13.1179 16.033 1.45755 
14.5755 14.5755 7.15732e-16 
16.033 16.033 1.45755 
14.5755 14.5755 2.9151 
18.9481 13.1179 1.45755 
17.4906 14.5755 7.29094e-16 
18.9481 16.033 1.45755 
20.4057 14.5755 7.23865e-16 
17.4906 14.5755 2.9151 
20.4057 14.5755 2.9151 
21.8632 13.1179 1.45755 
24.7783 13.1179 1.45755 
21.8632 16.033 1.45755 
23.3208 14.5755 7.3897e-16 
24.7783 16.033 1.45755 
23.3208 14.5755 2.9151 
27.6934 13.1179 1.45755 
26.2359 14.5755 7.26189e-16 
27.6934 16.033 1.45755 
26.2359 14.5755 2.9151 
7.36646e-16 17.4906 7.3897e-16 
1.45755 18.9481 1.45755 
2.9151 17.4906 8.06251e-16 
7.34322e-16 20.4057 7.25027e-16 
2.9151 20.4057 8.12061e-16 
7.59884e-16 17.4906 2.9151 
2.9151 17.4906 2.9151 
7.48265e-16 20.4057 2.9151 
2.9151 20.4057 2.9151 
4.37265 18.9481 1.45755 
5.8302 17.4906 7.43618e-16 
7.28775 18.9481 1.45755 
5.8302 20.4057 7.61627e-16 
5.8302 17.4906 2.9151 
5.8302 20.4057 2.9151 
8.7453 17.4906 7.23284e-16 
10.2028 18.9481 1.45755 
11.6604 17.4906 7.36065e-16 
8.7453 20.4057 7.19218e-16 
11.6604 20.4057 7.43618e-16 
8.7453 17.4906 2.9151 
11.6604 17.4906 2.9151 
8.7453 20.4057 2.9151 
11.6604 20.4057 2.9151 
13.1179 18.9481 1.45755 
14.5755 17.4906 7.30256e-16 
16.033 18.9481 1.45755 
14.5755 20.4057 7.15151e-16 
14.5755 17.4906 2.9151 
14.5755 20.4057 2.9151 
17.4906 17.4906 6.2278e-16 
18.9481 18.9481 1.45755 
20.4057 17.4906 6.48342e-16 
17.4906 20.4057 6.55313e-16 
20.4057 20.4057 6.61123e-16 
17.4906 17.4906 2.9151 
20.4057 17.4906 2.9151 
17.4906 20.4057 2.9151 
20.4057 20.4057 2.9151 
21.8632 18.9481 1.45755 
23.3208 17.4906 7.05275e-16 
24.7783 18.9481 1.45755 
23.3208 20.4057 7.23865e-16 
23.3208 17.4906 2.9151 
23.3208 20.4057 2.9151 
26.2359 17.4906 6.58799e-16 
27.6934 18.9481 1.45755 
26.2359 20.4057 6.68094e-16 
26.2359 17.4906 2.9151 
26.2359 20.4057 2.9151 
1.45755 21.8632 1.45755 
8.64455e-16 23.3208 8.52836e-16 
1.45755 24.7783 1.45755 
2.9151 23.3208 8.02148e-16 
7.92418e-16 23.3208 2.9151 
2.9151 23.3208 2.9151 
4.37265 21.8632 1.45755 
7.28775 21.8632 1.45755 
4.37265 24.7783 1.45755 
5.8302 23.3208 7.73246e-16 
7.28775 24.7783 1.45755 
5.8302 23.3208 2.9151 
10.2028 21.8632 1.45755 
8.7453 23.3208 7.24446e-16 
10.2028 24.7783 1.45755 
11.6604 23.3208 7.64532e-16 
8.7453 23.3208 2.9151 
11.6604 23.3208 2.9151 
13.1179 21.8632 1.45755 
16.033 21.8632 1.45755 
13.1179 24.7783 1.45755 
14.5755 23.3208 7.30256e-16 
16.033 24.7783 1.45755 
14.5755 23.3208 2.9151 
18.9481 21.8632 1.45755 
17.4906 23.3208 6.98303e-16 
18.9481 24.7783 1.45755 
20.4057 23.3208 7.33161e-16 
17.4906 23.3208 2.9151 
20.4057 23.3208 2.9151 
21.8632 21.8632 1.45755 
24.7783 21.8632 1.45755 
21.8632 24.7783 1.45755 
23.3208 23.3208 7.11665e-16 
24.7783 24.7783 1.45755 
23.3208 23.3208 2.9151 
27.6934 21.8632 1.45755 
26.2359 23.3208 7.20961e-16 
27.6934 24.7783 1.45755 
26.2359 23.3208 2.9151 
7.38643e-16 26.2359 7.11665e-16 
1.45755 27.6934 1.45755 
2.9151 26.2359 7.96375e-16 
7.5756e-16 26.2359 2.9151 
2.9151 26.2359 2.9151 
4.37265 27.6934 1.45755 
5.8302 26.2359 7.53494e-16 
7.28775 27.6934 1.45755 
5.8302 26.2359 2.9151 
8.7453 26.2359 7.30256e-16 
10.2028 27.6934 1.45755 
11.6604 26.2359 7.43037e-16 
8.7453 26.2359 2.9151 
11.6604 26.2359 2.9151 
13.1179 27.6934 1.45755 
14.5755 26.2359 7.25027e-16 
16.033 27.6934 1.45755 
14.5755 26.2359 2.9151 
17.4906 26.2359 6.4137e-16 
18.9481 27.6934 1.45755 
20.4057 26.2359 6.72742e-16 
17.4906 26.2359 2.9151 
20.4057 26.2359 2.9151 
21.8632 27.6934 1.45755 
23.3208 26.2359 7.26189e-16 
24.7783 27.6934 1.45755 
23.3208 26.2359 2.9151 
26.2359 26.2359 6.54151e-16 
27.6934 27.6934 1.45755 
26.2359 26.2359 2.9151 
1.45755 1.45755 4.37265 
7.52913e-16 7.41294e-16 5.8302 
1.45755 1.45755 7.28775 
2.9151 6.51392e-16 5.8302 
6.52989e-16 2.9151 5.8302 
2.9151 2.9151 5.8302 
4.37265 1.45755 4.37265 
7.28775 1.45755 4.37265 
4.37265 1.45755 7.28775 
5.8302 7.16513e-16 5.8302 
7.28775 1.45755 7.28775 
5.8302 2.9151 5.8302 
10.2028 1.45755 4.37265 
8.7453 7.34522e-16 5.8302 
10.2028 1.45755 7.28775 
11.6604 7.15968e-16 5.8302 
8.7453 2.9151 5.8302 
11.6604 2.9151 5.8302 
13.1179 1.45755 4.37265 
16.033 1.45755 4.37265 
13.1179 1.45755 7.28775 
14.5755 7.18419e-16 5.8302 
16.033 1.45755 7.28775 
14.5755 2.9151 5.8302 
18.9481 1.45755 4.37265 
17.4906 7.43926e-16 5.8302 
18.9481 1.45755 7.28775 
20.4057 7.6357e-16 5.8302 
17.4906 2.9151 5.8302 
20.4057 2.9151 5.8302 
21.8632 1.45755 4.37265 
24.7783 1.45755 4.37265 
21.8632 1.45755 7.28775 
23.3208 7.8216e-16 5.8302 
24.7783 1.45755 7.28775 
23.3208 2.9151 5.8302 
27.6934 1.45755 4.37265 
26.2359 7.50008e-16 5.8302 
27.6934 1.45755 7.28775 
26.2359 2.9151 5.8302 
1.45755 4.37265 4.37265 
1.45755 7.28775 4.37265 
1.45755 4.37265 7.28775 
7.13989e-16 5.8302 5.8302 
1.45755 7.28775 7.28775 
2.9151 5.8302 5.8302 
4.37265 4.37265 4.37265 
7.28775 4.37265 4.37265 
4.37265 7.28775 4.37265 
7.28775 7.28775 4.37265 
4.37265 4.37265 7.28775 
7.28775 4.37265 7.28775 
4.37265 7.28775 7.28775 
5.8302 5.8302 5.8302 
7.28775 7.28775 7.28775 
10.2028 4.37265 4.37265 
10.2028 7.28775 4.37265 
10.2028 4.37265 7.28775 
8.7453 5.8302 5.8302 
10.2028 7.28775 7.28775 
11.6604 5.8302 5.8302 
13.1179 4.37265 4.37265 
16.033 4.37265 4.37265 
13.1179 7.28775 4.37265 
16.033 7.28775 4.37265 
13.1179 4.37265 7.28775 
16.033 4.37265 7.28775 
13.1179 7.28775 7.28775 
14.5755 5.8302 5.8302 
16.033 7.28775 7.28775 
18.9481 4.37265 4.37265 
18.9481 7.28775 4.37265 
18.9481 4.37265 7.28775 
17.4906 5.8302 5.8302 
18.9481 7.28775 7.28775 
20.4057 5.8302 5.8302 
21.8632 4.37265 4.37265 
24.7783 4.37265 4.37265 
21.8632 7.28775 4.37265 
24.7783 7.28775 4.37265 
21.8632 4.37265 7.28775 
24.7783 4.37265 7.28775 
21.8632 7.28775 7.28775 
23.3208 5.8302 5.8302 
24.7783 7.28775 7.28775 
27.6934 4.37265 4.37265 
27.6934 7.28775 4.37265 
27.6934 4.37265 7.28775 
26.2359 5.8302 5.8302 
27.6934 7.28775 7.28775 
1.45755 10.2028 4.37265 
7.34322e-16 8.7453 5.8302 
1.45755 10.2028 7.28775 
2.9151 8.7453 5.8302 
7.08761e-16 11.6604 5.8302 
2.9151 11.6604 5.8302 
4.37265 10.2028 4.37265 
7.28775 10.2028 4.37265 
4.37265 10.2028 7.28775 
5.8302 8.7453 5.8302 
7.28775 10.2028 7.28775 
5.8302 11.6604 5.8302 
10.2028 10.2028 4.37265 
8.7453 8.7453 5.8302 
10.2028 10.2028 7.28775 
11.6604 8.7453 5.8302 
8.7453 11.6604 5.8302 
11.6604 11.6604 5.8302 
13.1179 10.2028 4.37265 
16.033 10.2028 4.37265 
13.1179 10.2028 7.28775 
14.5755 8.7453 5.8302 
16.033 10.2028 7.28775 
14.5755 11.6604 5.8302 
18.9481 10.2028 4.37265 
17.4906 8.7453 5.8302 
18.9481 10.2028 7.28775 
20.4057 8.7453 5.8302 
17.4906 11.6604 5.8302 
20.4057 11.6604 5.8302 
21.8632 10.2028 4.37265 
24.7783 10.2028 4.37265 
21.8632 10.2028 7.28775 
23.3208 8.7453 5.8302 
24.7783 10.2028 7.28775 
23.3208 11.6604 5.8302 
27.6934 10.2028 4.37265 
26.2359 8.7453 5.8302 
27.6934 10.2028 7.28775 
26.2359 11.6604 5.8302 
1.45755 13.1179 4.37265 
1.45755 16.033 4.37265 
1.45755 13.1179 7.28775 
7.23865e-16 14.5755 5.8302 
1.45755 16.033 7.28775 
2.9151 14.5755 5.8302 
4.37265 13.1179 4.37265 
7.28775 13.1179 4.37265 
4.37265 16.033 4.37265 
7.28775 16.033 4.37265 
4.37265 13.1179 7.28775 
7.28775 13.1179 7.28775 
4.37265 16.033 7.28775 
5.8302 14.5755 5.8302 
7.28775 16.033 7.28775 
10.2028 13.1179 4.37265 
10.2028 16.033 4.37265 
10.2028 13.1179 7.28775 
8.7453 14.5755 5.8302 
10.2028 16.033 7.28775 
11.6604 14.5755 5.8302 
13.1179 13.1179 4.37265 
16.033 13.1179 4.37265 
13.1179 16.033 4.37265 
16.033 16.033 4.37265 
13.1179 13.1179 7.28775 
16.033 13.1179 7.28775 
13.1179 16.033 7.28775 
14.5755 14.5755 5.8302 
16.033 16.033 7.28775 
18.9481 13.1179 4.37265 
18.9481 16.033 4.37265 
18.9481 13.1179 7.28775 
17.4906 14.5755 5.8302 
18.9481 16.033 7.28775 
20.4057 14.5755 5.8302 
21.8632 13.1179 4.37265 
24.7783 13.1179 4.37265 
21.8632 16.033 4.37265 
24.7783 16.033 4.37265 
21.8632 13.1179 7.28775 
24.7783 13.1179 7.28775 
21.8632 16.033 7.28775 
23.3208 14.5755 5.8302 
24.7783 16.033 7.28775 
27.6934 13.1179 4.37265 
27.6934 16.033 4.37265 
27.6934 13.1179 7.28775 
26.2359 14.5755 5.8302 
27.6934 16.033 7.28775 
1.45755 18.9481 4.37265 
7.3897e-16 17.4906 5.8302 
1.45755 18.9481 7.28775 
2.9151 17.4906 5.8302 
7.45941e-16 20.4057 5.8302 
2.9151 20.4057 5.8302 
4.37265 18.9481 4.37265 
7.28775 18.9481 4.37265 
4.37265 18.9481 7.28775 
5.8302 17.4906 5.8302 
7.28775 18.9481 7.28775 
5.8302 20.4057 5.8302 
10.2028 18.9481 4.37265 
8.7453 17.4906 5.8302 
10.2028 18.9481 7.28775 
11.6604 17.4906 5.8302 
8.7453 20.4057 5.8302 
11.6604 20.4057 5.8302 
13.1179 18.9481 4.37265 
16.033 18.9481 4.37265 
13.1179 18.9481 7.28775 
14.5755 17.4906 5.8302 
16.033 18.9481 7.28775 
14.5755 20.4057 5.8302 
18.9481 18.9481 4.37265 
17.4906 17.4906 5.8302 
18.9481 18.9481 7.28775 
20.4057 17.4906 5.8302 
17.4906 20.4057 5.8302 
20.4057 20.4057 5.8302 
21.8632 18.9481 4.37265 
24.7783 18.9481 4.37265 
21.8632 18.9481 7.28775 
23.3208 17.4906 5.8302 
24.7783 18.9481 7.28775 
23.3208 20.4057 5.8302 
27.6934 18.9481 4.37265 
26.2359 17.4906 5.8302 
27.6934 18.9481 7.28775 
26.2359 20.4057 5.8302 
1.45755 21.8632 4.37265 
1.45755 24.7783 4.37265 
1.45755 21.8632 7.28775 
7.83122e-16 23.3208 5.8302 
1.45755 24.7783 7.28775 
2.9151 23.3208 5.8302 
4.37265 21.8632 4.37265 
7.28775 21.8632 4.37265 
4.37265 24.7783 4.37265 
7.28775 24.7783 4.37265 
4.37265 21.8632 7.28775 
7.28775 21.8632 7.28775 
4.37265 24.7783 7.28775 
5.8302 23.3208 5.8302 
7.28775 24.7783 7.28775 
10.2028 21.8632 4.37265 
10.2028 24.7783 4.37265 
10.2028 21.8632 7.28775 
8.7453 23.3208 5.8302 
10.2028 24.7783 7.28775 
11.6604 23.3208 5.8302 
13.1179 21.8632 4.37265 
16.033 21.8632 4.37265 
13.1179 24.7783 4.37265 
16.033 24.7783 4.37265 
13.1179 21.8632 7.28775 
16.033 21.8632 7.28775 
13.1179 24.7783 7.28775 
14.5755 23.3208 5.8302 
16.033 24.7783 7.28775 
18.9481 21.8632 4.37265 
18.9481 24.7783 4.37265 
18.9481 21.8632 7.28775 
17.4906 23.3208 5.8302 
18.9481 24.7783 7.28775 
20.4057 23.3208 5.8302 
21.8632 21.8632 4.37265 
24.7783 21.8632 4.37265 
21.8632 24.7783 4.37265 
24.7783 24.7783 4.37265 
21.8632 21.8632 7.28775 
24.7783 21.8632 7.28775 
21.8632 24.7783 7.28775 
23.3208 23.3208 5.8302 
24.7783 24.7783 7.28775 
27.6934 21.8632 4.37265 
27.6934 24.7783 4.37265 
27.6934 21.8632 7.28775 
26.2359 23.3208 5.8302 
27.6934 24.7783 7.28775 
1.45755 27.6934 4.37265 
7.53494e-16 26.2359 5.8302 
1.45755 27.6934 7.28775 
2.9151 26.2359 5.8302 
4.37265 27.6934 4.37265 
7.28775 27.6934 4.37265 
4.37265 27.6934 7.28775 
5.8302 26.2359 5.8302 
7.28775 27.6934 7.28775 
10.2028 27.6934 4.37265 
8.7453 26.2359 5.8302 
10.2028 27.6934 7.28775 
11.6604 26.2359 5.8302 
13.1179 27.6934 4.37265 
16.033 27.6934 4.37265 
13.1179 27.6934 7.28775 
14.5755 26.2359 5.8302 
16.033 27.6934 7.28775 
18.9481 27.6934 4.37265 
17.4906 26.2359 5.8302 
18.9481 27.6934 7.28775 
20.4057 26.2359 5.8302 
21.8632 27.6934 4.37265 
24.7783 27.6934 4.37265 
21.8632 27.6934 7.28775 
23.3208 26.2359 5.8302 
24.7783 27.6934 7.28775 
27.6934 27.6934 4.37265 
26.2359 26.2359 5.8302 
27.6934 27.6934 7.28775 
6.73903e-16 6.73903e-16 8.7453 
1.45755 1.45755 10.2028 
2.9151 6.80149e-16 8.7453 
6.84361e-16 2.9151 8.7453 
2.9151 2.9151 8.7453 
7.41294e-16 7.31999e-16 11.6604 
2.9151 6.43331e-16 11.6604 
6.50665e-16 2.9151 11.6604 
2.9151 2.9151 11.6604 
4.37265 1.45755 10.2028 
5.8302 7.35484e-16 8.7453 
7.28775 1.45755 10.2028 
5.8302 2.9151 8.7453 
5.8302 7.13408e-16 11.6604 
5.8302 2.9151 11.6604 
8.7453 7.36646e-16 8.7453 
10.2028 1.45755 10.2028 
11.6604 7.28513e-16 8.7453 
8.7453 2.9151 8.7453 
11.6604 2.9151 8.7453 
8.7453 7.18056e-16 11.6604 
11.6604 7.18056e-16 11.6604 
8.7453 2.9151 11.6604 
11.6604 2.9151 11.6604 
13.1179 1.45755 10.2028 
14.5755 7.18637e-16 8.7453 
16.033 1.45755 10.2028 
14.5755 2.9151 8.7453 
14.5755 7.29675e-16 11.6604 
14.5755 2.9151 11.6604 
17.4906 6.48342e-16 8.7453 
18.9481 1.45755 10.2028 
20.4057 6.46599e-16 8.7453 
17.4906 2.9151 8.7453 
20.4057 2.9151 8.7453 
17.4906 7.18056e-16 11.6604 
20.4057 7.3897e-16 11.6604 
17.4906 2.9151 11.6604 
20.4057 2.9151 11.6604 
21.8632 1.45755 10.2028 
23.3208 7.22122e-16 8.7453 
24.7783 1.45755 10.2028 
23.3208 2.9151 8.7453 
23.3208 7.55237e-16 11.6604 
23.3208 2.9151 11.6604 
26.2359 6.5357e-16 8.7453 
27.6934 1.45755 10.2028 
26.2359 2.9151 8.7453 
26.2359 7.58141e-16 11.6604 
26.2359 2.9151 11.6604 
1.45755 4.37265 10.2028 
7.41784e-16 5.8302 8.7453 
1.45755 7.28775 10.2028 
2.9151 5.8302 8.7453 
7.06437e-16 5.8302 11.6604 
2.9151 5.8302 11.6604 
4.37265 4.37265 10.2028 
7.28775 4.37265 10.2028 
4.37265 7.28775 10.2028 
5.8302 5.8302 8.7453 
7.28775 7.28775 10.2028 
5.8302 5.8302 11.6604 
10.2028 4.37265 10.2028 
8.7453 5.8302 8.7453 
10.2028 7.28775 10.2028 
11.6604 5.8302 8.7453 
8.7453 5.8302 11.6604 
11.6604 5.8302 11.6604 
13.1179 4.37265 10.2028 
16.033 4.37265 10.2028 
13.1179 7.28775 10.2028 
14.5755 5.8302 8.7453 
16.033 7.28775 10.2028 
14.5755 5.8302 11.6604 
18.9481 4.37265 10.2028 
17.4906 5.8302 8.7453 
18.9481 7.28775 10.2028 
20.4057 5.8302 8.7453 
17.4906 5.8302 11.6604 
20.4057 5.8302 11.6604 
21.8632 4.37265 10.2028 
24.7783 4.37265 10.2028 
21.8632 7.28775 10.2028 
23.3208 5.8302 8.7453 
24.7783 7.28775 10.2028 
23.3208 5.8302 11.6604 
27.6934 4.37265 10.2028 
26.2359 5.8302 8.7453 
27.6934 7.28775 10.2028 
26.2359 5.8302 11.6604 
7.3897e-16 8.7453 8.7453 
1.45755 10.2028 10.2028 
2.9151 8.7453 8.7453 
7.35484e-16 11.6604 8.7453 
2.9151 11.6604 8.7453 
7.25027e-16 8.7453 11.6604 
2.9151 8.7453 11.6604 
7.25027e-16 11.6604 11.6604 
2.9151 11.6604 11.6604 
4.37265 10.2028 10.2028 
5.8302 8.7453 8.7453 
7.28775 10.2028 10.2028 
5.8302 11.6604 8.7453 
5.8302 8.7453 11.6604 
5.8302 11.6604 11.6604 
8.7453 8.7453 8.7453 
10.2028 10.2028 10.2028 
11.6604 8.7453 8.7453 
8.7453 11.6604 8.7453 
11.6604 11.6604 8.7453 
8.7453 8.7453 11.6604 
11.6604 8.7453 11.6604 
8.7453 11.6604 11.6604 
11.6604 11.6604 11.6604 
13.1179 10.2028 10.2028 
14.5755 8.7453 8.7453 
16.033 10.2028 10.2028 
14.5755 11.6604 8.7453 
14.5755 8.7453 11.6604 
14.5755 11.6604 11.6604 
17.4906 8.7453 8.7453 
18.9481 10.2028 10.2028 
20.4057 8.7453 8.7453 
17.4906 11.6604 8.7453 
20.4057 11.6604 8.7453 
17.4906 8.7453 11.6604 
20.4057 8.7453 11.6604 
17.4906 11.6604 11.6604 
20.4057 11.6604 11.6604 
21.8632 10.2028 10.2028 
23.3208 8.7453 8.7453 
24.7783 10.2028 10.2028 
23.3208 11.6604 8.7453 
23.3208 8.7453 11.6604 
23.3208 11.6604 11.6604 
26.2359 8.7453 8.7453 
27.6934 10.2028 10.2028 
26.2359 11.6604 8.7453 
26.2359 8.7453 11.6604 
26.2359 11.6604 11.6604 
1.45755 13.1179 10.2028 
7.27914e-16 14.5755 8.7453 
1.45755 16.033 10.2028 
2.9151 14.5755 8.7453 
7.27351e-16 14.5755 11.6604 
2.9151 14.5755 11.6604 
4.37265 13.1179 10.2028 
7.28775 13.1179 10.2028 
4.37265 16.033 10.2028 
5.8302 14.5755 8.7453 
7.28775 16.033 10.2028 
5.8302 14.5755 11.6604 
10.2028 13.1179 10.2028 
8.7453 14.5755 8.7453 
10.2028 16.033 10.2028 
11.6604 14.5755 8.7453 
8.7453 14.5755 11.6604 
11.6604 14.5755 11.6604 
13.1179 13.1179 10.2028 
16.033 13.1179 10.2028 
13.1179 16.033 10.2028 
14.5755 14.5755 8.7453 
16.033 16.033 10.2028 
14.5755 14.5755 11.6604 
18.9481 13.1179 10.2028 
17.4906 14.5755 8.7453 
18.9481 16.033 10.2028 
20.4057 14.5755 8.7453 
17.4906 14.5755 11.6604 
20.4057 14.5755 11.6604 
21.8632 13.1179 10.2028 
24.7783 13.1179 10.2028 
21.8632 16.033 10.2028 
23.3208 14.5755 8.7453 
24.7783 16.033 10.2028 
23.3208 14.5755 11.6604 
27.6934 13.1179 10.2028 
26.2359 14.5755 8.7453 
27.6934 16.033 10.2028 
26.2359 14.5755 11.6604 
6.57637e-16 17.4906 8.7453 
1.45755 18.9481 10.2028 
2.9151 17.4906 8.7453 
6.51827e-16 20.4057 8.7453 
2.9151 20.4057 8.7453 
7.34322e-16 17.4906 11.6604 
2.9151 17.4906 11.6604 
7.52913e-16 20.4057 11.6604 
2.9151 20.4057 11.6604 
4.37265 18.9481 10.2028 
5.8302 17.4906 8.7453 
7.28775 18.9481 10.2028 
5.8302 20.4057 8.7453 
5.8302 17.4906 11.6604 
5.8302 20.4057 11.6604 
8.7453 17.4906 8.7453 
10.2028 18.9481 10.2028 
11.6604 17.4906 8.7453 
8.7453 20.4057 8.7453 
11.6604 20.4057 8.7453 
8.7453 17.4906 11.6604 
11.6604 17.4906 11.6604 
8.7453 20.4057 11.6604 
11.6604 20.4057 11.6604 
13.1179 18.9481 10.2028 
14.5755 17.4906 8.7453 
16.033 18.9481 10.2028 
14.5755 20.4057 8.7453 
14.5755 17.4906 11.6604 
14.5755 20.4057 11.6604 
17.4906 17.4906 8.7453 
18.9481 18.9481 10.2028 
20.4057 17.4906 8.7453 
17.4906 20.4057 8.7453 
20.4057 20.4057 8.7453 
17.4906 17.4906 11.6604 
20.4057 17.4906 11.6604 
17.4906 20.4057 11.6604 
20.4057 20.4057 11.6604 
21.8632 18.9481 10.2028 
23.3208 17.4906 8.7453 
24.7783 18.9481 10.2028 
23.3208 20.4057 8.7453 
23.3208 17.4906 11.6604 
23.3208 20.4057 11.6604 
26.2359 17.4906 8.7453 
27.6934 18.9481 10.2028 
26.2359 20.4057 8.7453 
26.2359 17.4906 11.6604 
26.2359 20.4057 11.6604 
1.45755 21.8632 10.2028 
7.32271e-16 23.3208 8.7453 
1.45755 24.7783 10.2028 
2.9151 23.3208 8.7453 
7.5756e-16 23.3208 11.6604 
2.9151 23.3208 11.6604 
4.37265 21.8632 10.2028 
7.28775 21.8632 10.2028 
4.37265 24.7783 10.2028 
5.8302 23.3208 8.7453 
7.28775 24.7783 10.2028 
5.8302 23.3208 11.6604 
10.2028 21.8632 10.2028 
8.7453 23.3208 8.7453 
10.2028 24.7783 10.2028 
11.6604 23.3208 8.7453 
8.7453 23.3208 11.6604 
11.6604 23.3208 11.6604 
13.1179 21.8632 10.2028 
16.033 21.8632 10.2028 
13.1179 24.7783 10.2028 
14.5755 23.3208 8.7453 
16.033 24.7783 10.2028 
14.5755 23.3208 11.6604 
18.9481 21.8632 10.2028 
17.4906 23.3208 8.7453 
18.9481 24.7783 10.2028 
20.4057 23.3208 8.7453 
17.4906 23.3208 11.6604 
20.4057 23.3208 11.6604 
21.8632 21.8632 10.2028 
24.7783 21.8632 10.2028 
21.8632 24.7783 10.2028 
23.3208 23.3208 8.7453 
24.7783 24.7783 10.2028 
23.3208 23.3208 11.6604 
27.6934 21.8632 10.2028 
26.2359 23.3208 8.7453 
27.6934 24.7783 10.2028 
26.2359 23.3208 11.6604 
6.58799e-16 26.2359 8.7453 
1.45755 27.6934 10.2028 
2.9151 26.2359 8.7453 
7.59884e-16 26.2359 11.6604 
2.9151 26.2359 11.6604 
4.37265 27.6934 10.2028 
5.8302 26.2359 8.7453 
7.28775 27.6934 10.2028 
5.8302 26.2359 11.6604 
8.7453 26.2359 8.7453 
10.2028 27.6934 10.2028 
11.6604 26.2359 8.7453 
8.7453 26.2359 11.6604 
11.6604 26.2359 11.6604 
13.1179 27.6934 10.2028 
14.5755 26.2359 8.7453 
16.033 27.6934 10.2028 
14.5755 26.2359 11.6604 
17.4906 26.2359 8.7453 
18.9481 27.6934 10.2028 
20.4057 26.2359 8.7453 
17.4906 26.2359 11.6604 
20.4057 26.2359 11.6604 
21.8632 27.6934 10.2028 
23.3208 26.2359 8.7453 
24.7783 27.6934 10.2028 
23.3208 26.2359 11.6604 
26.2359 26.2359 8.7453 
27.6934 27.6934 10.2028 
26.2359 26.2359 11.6604 
1.45755 1.45755 13.1179 
6.7158e-16 6.62284e-16 14.5755 
1.45755 1.45755 16.033 
2.9151 6.77607e-16 14.5755 
6.69256e-16 2.9151 14.5755 
2.9151 2.9151 14.5755 
4.37265 1.45755 13.1179 
7.28775 1.45755 13.1179 
4.37265 1.45755 16.033 
5.8302 7.30619e-16 14.5755 
7.28775 1.45755 16.033 
5.8302 2.9151 14.5755 
10.2028 1.45755 13.1179 
8.7453 7.40295e-16 14.5755 
10.2028 1.45755 16.033 
11.6604 7.29983e-16 14.5755 
8.7453 2.9151 14.5755 
11.6604 2.9151 14.5755 
13.1179 1.45755 13.1179 
16.033 1.45755 13.1179 
13.1179 1.45755 16.033 
14.5755 7.14389e-16 14.5755 
16.033 1.45755 16.033 
14.5755 2.9151 14.5755 
18.9481 1.45755 13.1179 
17.4906 6.5918e-16 14.5755 
18.9481 1.45755 16.033 
20.4057 6.43385e-16 14.5755 
17.4906 2.9151 14.5755 
20.4057 2.9151 14.5755 
21.8632 1.45755 13.1179 
24.7783 1.45755 13.1179 
21.8632 1.45755 16.033 
23.3208 7.34595e-16 14.5755 
24.7783 1.45755 16.033 
23.3208 2.9151 14.5755 
27.6934 1.45755 13.1179 
26.2359 6.47761e-16 14.5755 
27.6934 1.45755 16.033 
26.2359 2.9151 14.5755 
1.45755 4.37265 13.1179 
1.45755 7.28775 13.1179 
1.45755 4.37265 16.033 
7.23284e-16 5.8302 14.5755 
1.45755 7.28775 16.033 
2.9151 5.8302 14.5755 
4.37265 4.37265 13.1179 
7.28775 4.37265 13.1179 
4.37265 7.28775 13.1179 
7.28775 7.28775 13.1179 
4.37265 4.37265 16.033 
7.28775 4.37265 16.033 
4.37265 7.28775 16.033 
5.8302 5.8302 14.5755 
7.28775 7.28775 16.033 
10.2028 4.37265 13.1179 
10.2028 7.28775 13.1179 
10.2028 4.37265 16.033 
8.7453 5.8302 14.5755 
10.2028 7.28775 16.033 
11.6604 5.8302 14.5755 
13.1179 4.37265 13.1179 
16.033 4.37265 13.1179 
13.1179 7.28775 13.1179 
16.033 7.28775 13.1179 
13.1179 4.37265 16.033 
16.033 4.37265 16.033 
13.1179 7.28775 16.033 
14.5755 5.8302 14.5755 
16.033 7.28775 16.033 
18.9481 4.37265 13.1179 
18.9481 7.28775 13.1179 
18.9481 4.37265 16.033 
17.4906 5.8302 14.5755 
18.9481 7.28775 16.033 
20.4057 5.8302 14.5755 
21.8632 4.37265 13.1179 
24.7783 4.37265 13.1179 
21.8632 7.28775 13.1179 
24.7783 7.28775 13.1179 
21.8632 4.37265 16.033 
24.7783 4.37265 16.033 
21.8632 7.28775 16.033 
23.3208 5.8302 14.5755 
24.7783 7.28775 16.033 
27.6934 4.37265 13.1179 
27.6934 7.28775 13.1179 
27.6934 4.37265 16.033 
26.2359 5.8302 14.5755 
27.6934 7.28775 16.033 
1.45755 10.2028 13.1179 
7.32071e-16 8.7453 14.5755 
1.45755 10.2028 16.033 
2.9151 8.7453 14.5755 
7.34322e-16 11.6604 14.5755 
2.9151 11.6604 14.5755 
4.37265 10.2028 13.1179 
7.28775 10.2028 13.1179 
4.37265 10.2028 16.033 
5.8302 8.7453 14.5755 
7.28775 10.2028 16.033 
5.8302 11.6604 14.5755 
10.2028 10.2028 13.1179 
8.7453 8.7453 14.5755 
10.2028 10.2028 16.033 
11.6604 8.7453 14.5755 
8.7453 11.6604 14.5755 
11.6604 11.6604 14.5755 
13.1179 10.2028 13.1179 
16.033 10.2028 13.1179 
13.1179 10.2028 16.033 
14.5755 8.7453 14.5755 
16.033 10.2028 16.033 
14.5755 11.6604 14.5755 
18.9481 10.2028 13.1179 
17.4906 8.7453 14.5755 
18.9481 10.2028 16.033 
20.4057 8.7453 14.5755 
17.4906 11.6604 14.5755 
20.4057 11.6604 14.5755 
21.8632 10.2028 13.1179 
24.7783 10.2028 13.1179 
21.8632 10.2028 16.033 
23.3208 8.7453 14.5755 
24.7783 10.2028 16.033 
23.3208 11.6604 14.5755 
27.6934 10.2028 13.1179 
26.2359 8.7453 14.5755 
27.6934 10.2028 16.033 
26.2359 11.6604 14.5755 
1.45755 13.1179 13.1179 
1.45755 16.033 13.1179 
1.45755 13.1179 16.033 
7.11665e-16 14.5755 14.5755 
1.45755 16.033 16.033 
2.9151 14.5755 14.5755 
4.37265 13.1179 13.1179 
7.28775 13.1179 13.1179 
4.37265 16.033 13.1179 
7.28775 16.033 13.1179 
4.37265 13.1179 16.033 
7.28775 13.1179 16.033 
4.37265 16.033 16.033 
5.8302 14.5755 14.5755 
7.28775 16.033 16.033 
10.2028 13.1179 13.1179 
10.2028 16.033 13.1179 
10.2028 13.1179 16.033 
8.7453 14.5755 14.5755 
10.2028 16.033 16.033 
11.6604 14.5755 14.5755 
13.1179 13.1179 13.1179 
16.033 13.1179 13.1179 
13.1179 16.033 13.1179 
16.033 16.033 13.1179 
13.1179 13.1179 16.033 
16.033 13.1179 16.033 
13.1179 16.033 16.033 
14.5755 14.5755 14.5755 
16.033 16.033 16.033 
18.9481 13.1179 13.1179 
18.9481 16.033 13.1179 
18.9481 13.1179 16.033 
17.4906 14.5755 14.5755 
18.9481 16.033 16.033 
20.4057 14.5755 14.5755 
21.8632 13.1179 13.1179 
24.7783 13.1179 13.1179 
21.8632 16.033 13.1179 
24.7783 16.033 13.1179 
21.8632 13.1179 16.033 
24.7783 13.1179 16.033 
21.8632 16.033 16.033 
23.3208 14.5755 14.5755 
24.7783 16.033 16.033 
27.6934 13.1179 13.1179 
27.6934 16.033 13.1179 
27.6934 13.1179 16.033 
26.2359 14.5755 14.5755 
27.6934 16.033 16.033 
1.45755 18.9481 13.1179 
6.53643e-16 17.4906 14.5755 
1.45755 18.9481 16.033 
2.9151 17.4906 14.5755 
6.50665e-16 20.4057 14.5755 
2.9151 20.4057 14.5755 
4.37265 18.9481 13.1179 
7.28775 18.9481 13.1179 
4.37265 18.9481 16.033 
5.8302 17.4906 14.5755 
7.28775 18.9481 16.033 
5.8302 20.4057 14.5755 
10.2028 18.9481 13.1179 
8.7453 17.4906 14.5755 
10.2028 18.9481 16.033 
11.6604 17.4906 14.5755 
8.7453 20.4057 14.5755 
11.6604 20.4057 14.5755 
13.1179 18.9481 13.1179 
16.033 18.9481 13.1179 
13.1179 18.9481 16.033 
14.5755 17.4906 14.5755 
16.033 18.9481 16.033 
14.5755 20.4057 14.5755 
18.9481 18.9481 13.1179 
17.4906 17.4906 14.5755 
18.9481 18.9481 16.033 
20.4057 17.4906 14.5755 
17.4906 20.4057 14.5755 
20.4057 20.4057 14.5755 
21.8632 18.9481 13.1179 
24.7783 18.9481 13.1179 
21.8632 18.9481 16.033 
23.3208 17.4906 14.5755 
24.7783 18.9481 16.033 
23.3208 20.4057 14.5755 
27.6934 18.9481 13.1179 
26.2359 17.4906 14.5755 
27.6934 18.9481 16.033 
26.2359 20.4057 14.5755 
1.45755 21.8632 13.1179 
1.45755 24.7783 13.1179 
1.45755 21.8632 16.033 
7.34903e-16 23.3208 14.5755 
1.45755 24.7783 16.033 
2.9151 23.3208 14.5755 
4.37265 21.8632 13.1179 
7.28775 21.8632 13.1179 
4.37265 24.7783 13.1179 
7.28775 24.7783 13.1179 
4.37265 21.8632 16.033 
7.28775 21.8632 16.033 
4.37265 24.7783 16.033 
5.8302 23.3208 14.5755 
7.28775 24.7783 16.033 
10.2028 21.8632 13.1179 
10.2028 24.7783 13.1179 
10.2028 21.8632 16.033 
8.7453 23.3208 14.5755 
10.2028 24.7783 16.033 
11.6604 23.3208 14.5755 
13.1179 21.8632 13.1179 
16.033 21.8632 13.1179 
13.1179 24.7783 13.1179 
16.033 24.7783 13.1179 
13.1179 21.8632 16.033 
16.033 21.8632 16.033 
13.1179 24.7783 16.033 
14.5755 23.3208 14.5755 
16.033 24.7783 16.033 
18.9481 21.8632 13.1179 
18.9481 24.7783 13.1179 
18.9481 21.8632 16.033 
17.4906 23.3208 14.5755 
18.9481 24.7783 16.033 
20.4057 23.3208 14.5755 
21.8632 21.8632 13.1179 
24.7783 21.8632 13.1179 
21.8632 24.7783 13.1179 
24.7783 24.7783 13.1179 
21.8632 21.8632 16.033 
24.7783 21.8632 16.033 
21.8632 24.7783 16.033 
23.3208 23.3208 14.5755 
24.7783 24.7783 16.033 
27.6934 21.8632 13.1179 
27.6934 24.7783 13.1179 
27.6934 21.8632 16.033 
26.2359 23.3208 14.5755 
27.6934 24.7783 16.033 
1.45755 27.6934 13.1179 
6.50084e-16 26.2359 14.5755 
1.45755 27.6934 16.033 
2.9151 26.2359 14.5755 
4.37265 27.6934 13.1179 
7.28775 27.6934 13.1179 
4.37265 27.6934 16.033 
5.8302 26.2359 14.5755 
7.28775 27.6934 16.033 
10.2028 27.6934 13.1179 
8.7453 26.2359 14.5755 
10.2028 27.6934 16.033 
11.6604 26.2359 14.5755 
13.1179 27.6934 13.1179 
16.033 27.6934 13.1179 
13.1179 27.6934 16.033 
14.5755 26.2359 14.5755 
16.033 27.6934 16.033 
18.9481 27.6934 13.1179 
17.4906 26.2359 14.5755 
18.9481 27.6934 16.033 