#------------------------------------------------
variable total_timesteps equal ${simtime}/dt
variable total_timesteps equal 50000/dt
units           metal
boundary        p p p
atom_style      atomic
#------------------------------------------------
lattice         bcc ${lattice} origin 0.5 0.5 0.5
lattice         bcc 2.8712 origin 0.5 0.5 0.5
Lattice spacing in x,y,z = 2.8712 2.8712 2.8712
region          box block 0 ${cell} 0 ${cell} 0 ${cell}
region          box block 0 10 0 ${cell} 0 ${cell}
region          box block 0 10 0 10 0 ${cell}
region          box block 0 10 0 10 0 10
create_box      1 box
Created orthogonal box = (0 0 0) to (28.712 28.712 28.712)
  1 by 1 by 1 MPI processor grid
create_atoms    1 box
Created 2000 atoms
  create_atoms CPU = 0.00048399 secs
mass            1 55.845
#------------------------------------------------
pair_style      eam/fs
pair_coeff      * * ../other/Fe_mm.eam.fs Fe
Reading potential file ../other/Fe_mm.eam.fs with DATE: 2007-06-11
#------------------------------------------------
dump clear_dump all custom 1 ${dumps_path}/clear.dump x y z
dump clear_dump all custom 1 ../lmp_data_cell10_time50000/data_700/dumps/clear.dump x y z
run 0
WARNING: No fixes defined, atoms won't move (../verlet.cpp:52)
Neighbor list info ...
  update every 1 steps, delay 10 steps, check yes
  max neighbors/atom: 2000, page size: 100000
  master list distance cutoff = 7.3
  ghost atom cutoff = 7.3
  binsize = 3.65, bins = 8 8 8
  1 neighbor lists, perpetual/occasional/extra = 1 0 0
  (1) pair eam/fs, perpetual
      attributes: half, newton on
      pair build: half/bin/atomonly/newton
      stencil: half/bin/3d/newton
      bin: standard
Per MPI rank memory allocation (min/avg/max) = 5.235 | 5.235 | 5.235 Mbytes
Step Temp E_pair E_mol TotEng Press 
       0            0   -8241.2859            0   -8241.2859   -29215.868 
Loop time of 9.53674e-07 on 1 procs for 0 steps with 2000 atoms

104.9% CPU use with 1 MPI tasks x no OpenMP threads

MPI task timing breakdown:
Section |  min time  |  avg time  |  max time  |%varavg| %total
---------------------------------------------------------------
Pair    | 0          | 0          | 0          |   0.0 |  0.00
Neigh   | 0          | 0          | 0          |   0.0 |  0.00
Comm    | 0          | 0          | 0          |   0.0 |  0.00
Output  | 0          | 0          | 0          |   0.0 |  0.00
Modify  | 0          | 0          | 0          |   0.0 |  0.00
Other   |            | 9.537e-07  |            |       |100.00

Nlocal:    2000 ave 2000 max 2000 min
Histogram: 1 0 0 0 0 0 0 0 0 0
Nghost:    5471 ave 5471 max 5471 min
Histogram: 1 0 0 0 0 0 0 0 0 0
Neighs:    136000 ave 136000 max 136000 min
Histogram: 1 0 0 0 0 0 0 0 0 0

Total # of neighbors = 136000
Ave neighs/atom = 68
Neighbor list builds = 0
Dangerous builds = 0
undump clear_dump
create_atoms 1 single 6 5.88 5.88
Created 1 atoms
  create_atoms CPU = 9.05991e-06 secs
#------------------------------------------------
min_style cg
minimize 1e-9 1e-9 5000 5000
WARNING: Using 'neigh_modify every 1 delay 0 check yes' setting during minimization (../min.cpp:168)
Per MPI rank memory allocation (min/avg/max) = 5.065 | 5.065 | 5.065 Mbytes
Step Temp E_pair E_mol TotEng Press 
       0            0 2.0522975e+12            0 2.0522975e+12 4.6306193e+13 
      35            0   -8242.1437            0   -8242.1437   -28132.867 
Loop time of 0.262284 on 1 procs for 35 steps with 2001 atoms

96.7% CPU use with 1 MPI tasks x no OpenMP threads

Minimization stats:
  Stopping criterion = energy tolerance
  Energy initial, next-to-last, final = 
     2.05229746661e+12     -8242.14371173     -8242.14371483
  Force two-norm initial, final = 5.95656e+12 0.00687334
  Force max component initial, final = 2.97828e+12 0.00225186
  Final line search alpha, max atom move = 1 0.00225186
  Iterations, force evaluations = 35 62

MPI task timing breakdown:
Section |  min time  |  avg time  |  max time  |%varavg| %total
---------------------------------------------------------------
Pair    | 0.25367    | 0.25367    | 0.25367    |   0.0 | 96.72
Neigh   | 0.0037761  | 0.0037761  | 0.0037761  |   0.0 |  1.44
Comm    | 0.0017719  | 0.0017719  | 0.0017719  |   0.0 |  0.68
Output  | 0          | 0          | 0          |   0.0 |  0.00
Modify  | 0          | 0          | 0          |   0.0 |  0.00
Other   |            | 0.003065   |            |       |  1.17

Nlocal:    2001 ave 2001 max 2001 min
Histogram: 1 0 0 0 0 0 0 0 0 0
Nghost:    5471 ave 5471 max 5471 min
Histogram: 1 0 0 0 0 0 0 0 0 0
Neighs:    136153 ave 136153 max 136153 min
Histogram: 1 0 0 0 0 0 0 0 0 0

Total # of neighbors = 136153
Ave neighs/atom = 68.0425
Neighbor list builds = 1
Dangerous builds = 0
#------------------------------------------------
velocity        all create $(2*v_temp) 352839 mom yes rot yes
velocity        all create 1400 352839 mom yes rot yes
fix             1 all nve
run 1000
Per MPI rank memory allocation (min/avg/max) = 3.94 | 3.94 | 3.94 Mbytes
Step Temp E_pair E_mol TotEng Press 
      35         1400   -8242.1437            0   -7880.2153   -11800.413 
    1035    702.53684   -8061.7492            0   -7880.1292   -1612.3462 
Loop time of 4.06546 on 1 procs for 1000 steps with 2001 atoms

Performance: 21.252 ns/day, 1.129 hours/ns, 245.975 timesteps/s
96.3% CPU use with 1 MPI tasks x no OpenMP threads

MPI task timing breakdown:
Section |  min time  |  avg time  |  max time  |%varavg| %total
---------------------------------------------------------------
Pair    | 4.0146     | 4.0146     | 4.0146     |   0.0 | 98.75
Neigh   | 0          | 0          | 0          |   0.0 |  0.00
Comm    | 0.024023   | 0.024023   | 0.024023   |   0.0 |  0.59
Output  | 2.5034e-05 | 2.5034e-05 | 2.5034e-05 |   0.0 |  0.00
Modify  | 0.017267   | 0.017267   | 0.017267   |   0.0 |  0.42
Other   |            | 0.009499   |            |       |  0.23

Nlocal:    2001 ave 2001 max 2001 min
Histogram: 1 0 0 0 0 0 0 0 0 0
Nghost:    5471 ave 5471 max 5471 min
Histogram: 1 0 0 0 0 0 0 0 0 0
Neighs:    136159 ave 136159 max 136159 min
Histogram: 1 0 0 0 0 0 0 0 0 0

Total # of neighbors = 136159
Ave neighs/atom = 68.0455
Neighbor list builds = 0
Dangerous builds = 0
